 TITLE = "Mesh" 
 VARIABLES = X Y Z 
 ZONE T = "ZONE", N =      250, E =      176, F = FEPOINT, ET =   QUADRILATERAL
    -0.61872E+03   -0.61872E+03   -0.87500E+04
    -0.39131E+03   -0.78262E+03   -0.87500E+04
     0.00000E+00   -0.87500E+03   -0.87500E+04
     0.39131E+03   -0.78262E+03   -0.87500E+04
     0.61872E+03   -0.61872E+03   -0.87500E+04
    -0.78262E+03   -0.39131E+03   -0.87500E+04
    -0.30936E+03   -0.30936E+03   -0.87500E+04
     0.00000E+00   -0.43750E+03   -0.87500E+04
     0.30936E+03   -0.30936E+03   -0.87500E+04
     0.78262E+03   -0.39131E+03   -0.87500E+04
    -0.87500E+03    0.00000E+00   -0.87500E+04
    -0.43750E+03    0.00000E+00   -0.87500E+04
     0.00000E+00    0.00000E+00   -0.87500E+04
     0.43750E+03    0.00000E+00   -0.87500E+04
     0.87500E+03    0.00000E+00   -0.87500E+04
    -0.78262E+03    0.39131E+03   -0.87500E+04
    -0.30936E+03    0.30936E+03   -0.87500E+04
     0.00000E+00    0.43750E+03   -0.87500E+04
     0.30936E+03    0.30936E+03   -0.87500E+04
     0.78262E+03    0.39131E+03   -0.87500E+04
    -0.61872E+03    0.61872E+03   -0.87500E+04
    -0.39131E+03    0.78262E+03   -0.87500E+04
     0.00000E+00    0.87500E+03   -0.87500E+04
     0.39131E+03    0.78262E+03   -0.87500E+04
     0.61872E+03    0.61872E+03   -0.87500E+04
    -0.61872E+03   -0.61872E+03   -0.68056E+04
    -0.39131E+03   -0.78262E+03   -0.68056E+04
     0.00000E+00   -0.87500E+03   -0.68056E+04
     0.39131E+03   -0.78262E+03   -0.68056E+04
     0.61872E+03   -0.61872E+03   -0.68056E+04
    -0.78262E+03   -0.39131E+03   -0.68056E+04
    -0.30936E+03   -0.30936E+03   -0.68056E+04
     0.00000E+00   -0.43750E+03   -0.68056E+04
     0.30936E+03   -0.30936E+03   -0.68056E+04
     0.78262E+03   -0.39131E+03   -0.68056E+04
    -0.87500E+03    0.00000E+00   -0.68056E+04
    -0.43750E+03    0.00000E+00   -0.68056E+04
     0.00000E+00    0.00000E+00   -0.68056E+04
     0.43750E+03    0.00000E+00   -0.68056E+04
     0.87500E+03    0.00000E+00   -0.68056E+04
    -0.78262E+03    0.39131E+03   -0.68056E+04
    -0.30936E+03    0.30936E+03   -0.68056E+04
     0.00000E+00    0.43750E+03   -0.68056E+04
     0.30936E+03    0.30936E+03   -0.68056E+04
     0.78262E+03    0.39131E+03   -0.68056E+04
    -0.61872E+03    0.61872E+03   -0.68056E+04
    -0.39131E+03    0.78262E+03   -0.68056E+04
     0.00000E+00    0.87500E+03   -0.68056E+04
     0.39131E+03    0.78262E+03   -0.68056E+04
     0.61872E+03    0.61872E+03   -0.68056E+04
    -0.61872E+03   -0.61872E+03   -0.48611E+04
    -0.39131E+03   -0.78262E+03   -0.48611E+04
     0.00000E+00   -0.87500E+03   -0.48611E+04
     0.39131E+03   -0.78262E+03   -0.48611E+04
     0.61872E+03   -0.61872E+03   -0.48611E+04
    -0.78262E+03   -0.39131E+03   -0.48611E+04
    -0.30936E+03   -0.30936E+03   -0.48611E+04
     0.00000E+00   -0.43750E+03   -0.48611E+04
     0.30936E+03   -0.30936E+03   -0.48611E+04
     0.78262E+03   -0.39131E+03   -0.48611E+04
    -0.87500E+03    0.00000E+00   -0.48611E+04
    -0.43750E+03    0.00000E+00   -0.48611E+04
     0.00000E+00    0.00000E+00   -0.48611E+04
     0.43750E+03    0.00000E+00   -0.48611E+04
     0.87500E+03    0.00000E+00   -0.48611E+04
    -0.78262E+03    0.39131E+03   -0.48611E+04
    -0.30936E+03    0.30936E+03   -0.48611E+04
     0.00000E+00    0.43750E+03   -0.48611E+04
     0.30936E+03    0.30936E+03   -0.48611E+04
     0.78262E+03    0.39131E+03   -0.48611E+04
    -0.61872E+03    0.61872E+03   -0.48611E+04
    -0.39131E+03    0.78262E+03   -0.48611E+04
     0.00000E+00    0.87500E+03   -0.48611E+04
     0.39131E+03    0.78262E+03   -0.48611E+04
     0.61872E+03    0.61872E+03   -0.48611E+04
    -0.61872E+03   -0.61872E+03   -0.29167E+04
    -0.39131E+03   -0.78262E+03   -0.29167E+04
     0.00000E+00   -0.87500E+03   -0.29167E+04
     0.39131E+03   -0.78262E+03   -0.29167E+04
     0.61872E+03   -0.61872E+03   -0.29167E+04
    -0.78262E+03   -0.39131E+03   -0.29167E+04
    -0.30936E+03   -0.30936E+03   -0.29167E+04
     0.00000E+00   -0.43750E+03   -0.29167E+04
     0.30936E+03   -0.30936E+03   -0.29167E+04
     0.78262E+03   -0.39131E+03   -0.29167E+04
    -0.87500E+03    0.00000E+00   -0.29167E+04
    -0.43750E+03    0.00000E+00   -0.29167E+04
     0.00000E+00    0.00000E+00   -0.29167E+04
     0.43750E+03    0.00000E+00   -0.29167E+04
     0.87500E+03    0.00000E+00   -0.29167E+04
    -0.78262E+03    0.39131E+03   -0.29167E+04
    -0.30936E+03    0.30936E+03   -0.29167E+04
     0.00000E+00    0.43750E+03   -0.29167E+04
     0.30936E+03    0.30936E+03   -0.29167E+04
     0.78262E+03    0.39131E+03   -0.29167E+04
    -0.61872E+03    0.61872E+03   -0.29167E+04
    -0.39131E+03    0.78262E+03   -0.29167E+04
     0.00000E+00    0.87500E+03   -0.29167E+04
     0.39131E+03    0.78262E+03   -0.29167E+04
     0.61872E+03    0.61872E+03   -0.29167E+04
    -0.61872E+03   -0.61872E+03   -0.97222E+03
    -0.39131E+03   -0.78262E+03   -0.97222E+03
     0.00000E+00   -0.87500E+03   -0.97222E+03
     0.39131E+03   -0.78262E+03   -0.97222E+03
     0.61872E+03   -0.61872E+03   -0.97222E+03
    -0.78262E+03   -0.39131E+03   -0.97222E+03
    -0.30936E+03   -0.30936E+03   -0.97222E+03
     0.00000E+00   -0.43750E+03   -0.97222E+03
     0.30936E+03   -0.30936E+03   -0.97222E+03
     0.78262E+03   -0.39131E+03   -0.97222E+03
    -0.87500E+03    0.00000E+00   -0.97222E+03
    -0.43750E+03    0.00000E+00   -0.97222E+03
     0.00000E+00    0.00000E+00   -0.97222E+03
     0.43750E+03    0.00000E+00   -0.97222E+03
     0.87500E+03    0.00000E+00   -0.97222E+03
    -0.78262E+03    0.39131E+03   -0.97222E+03
    -0.30936E+03    0.30936E+03   -0.97222E+03
     0.00000E+00    0.43750E+03   -0.97222E+03
     0.30936E+03    0.30936E+03   -0.97222E+03
     0.78262E+03    0.39131E+03   -0.97222E+03
    -0.61872E+03    0.61872E+03   -0.97222E+03
    -0.39131E+03    0.78262E+03   -0.97222E+03
     0.00000E+00    0.87500E+03   -0.97222E+03
     0.39131E+03    0.78262E+03   -0.97222E+03
     0.61872E+03    0.61872E+03   -0.97222E+03
    -0.61872E+03   -0.61872E+03    0.97222E+03
    -0.39131E+03   -0.78262E+03    0.97222E+03
     0.00000E+00   -0.87500E+03    0.97222E+03
     0.39131E+03   -0.78262E+03    0.97222E+03
     0.61872E+03   -0.61872E+03    0.97222E+03
    -0.78262E+03   -0.39131E+03    0.97222E+03
    -0.30936E+03   -0.30936E+03    0.97222E+03
     0.00000E+00   -0.43750E+03    0.97222E+03
     0.30936E+03   -0.30936E+03    0.97222E+03
     0.78262E+03   -0.39131E+03    0.97222E+03
    -0.87500E+03    0.00000E+00    0.97222E+03
    -0.43750E+03    0.00000E+00    0.97222E+03
     0.00000E+00    0.00000E+00    0.97222E+03
     0.43750E+03    0.00000E+00    0.97222E+03
     0.87500E+03    0.00000E+00    0.97222E+03
    -0.78262E+03    0.39131E+03    0.97222E+03
    -0.30936E+03    0.30936E+03    0.97222E+03
     0.00000E+00    0.43750E+03    0.97222E+03
     0.30936E+03    0.30936E+03    0.97222E+03
     0.78262E+03    0.39131E+03    0.97222E+03
    -0.61872E+03    0.61872E+03    0.97222E+03
    -0.39131E+03    0.78262E+03    0.97222E+03
     0.00000E+00    0.87500E+03    0.97222E+03
     0.39131E+03    0.78262E+03    0.97222E+03
     0.61872E+03    0.61872E+03    0.97222E+03
    -0.61872E+03   -0.61872E+03    0.29167E+04
    -0.39131E+03   -0.78262E+03    0.29167E+04
     0.00000E+00   -0.87500E+03    0.29167E+04
     0.39131E+03   -0.78262E+03    0.29167E+04
     0.61872E+03   -0.61872E+03    0.29167E+04
    -0.78262E+03   -0.39131E+03    0.29167E+04
    -0.30936E+03   -0.30936E+03    0.29167E+04
     0.00000E+00   -0.43750E+03    0.29167E+04
     0.30936E+03   -0.30936E+03    0.29167E+04
     0.78262E+03   -0.39131E+03    0.29167E+04
    -0.87500E+03    0.00000E+00    0.29167E+04
    -0.43750E+03    0.00000E+00    0.29167E+04
     0.00000E+00    0.00000E+00    0.29167E+04
     0.43750E+03    0.00000E+00    0.29167E+04
     0.87500E+03    0.00000E+00    0.29167E+04
    -0.78262E+03    0.39131E+03    0.29167E+04
    -0.30936E+03    0.30936E+03    0.29167E+04
     0.00000E+00    0.43750E+03    0.29167E+04
     0.30936E+03    0.30936E+03    0.29167E+04
     0.78262E+03    0.39131E+03    0.29167E+04
    -0.61872E+03    0.61872E+03    0.29167E+04
    -0.39131E+03    0.78262E+03    0.29167E+04
     0.00000E+00    0.87500E+03    0.29167E+04
     0.39131E+03    0.78262E+03    0.29167E+04
     0.61872E+03    0.61872E+03    0.29167E+04
    -0.61872E+03   -0.61872E+03    0.48611E+04
    -0.39131E+03   -0.78262E+03    0.48611E+04
     0.00000E+00   -0.87500E+03    0.48611E+04
     0.39131E+03   -0.78262E+03    0.48611E+04
     0.61872E+03   -0.61872E+03    0.48611E+04
    -0.78262E+03   -0.39131E+03    0.48611E+04
    -0.30936E+03   -0.30936E+03    0.48611E+04
     0.00000E+00   -0.43750E+03    0.48611E+04
     0.30936E+03   -0.30936E+03    0.48611E+04
     0.78262E+03   -0.39131E+03    0.48611E+04
    -0.87500E+03    0.00000E+00    0.48611E+04
    -0.43750E+03    0.00000E+00    0.48611E+04
     0.00000E+00    0.00000E+00    0.48611E+04
     0.43750E+03    0.00000E+00    0.48611E+04
     0.87500E+03    0.00000E+00    0.48611E+04
    -0.78262E+03    0.39131E+03    0.48611E+04
    -0.30936E+03    0.30936E+03    0.48611E+04
     0.00000E+00    0.43750E+03    0.48611E+04
     0.30936E+03    0.30936E+03    0.48611E+04
     0.78262E+03    0.39131E+03    0.48611E+04
    -0.61872E+03    0.61872E+03    0.48611E+04
    -0.39131E+03    0.78262E+03    0.48611E+04
     0.00000E+00    0.87500E+03    0.48611E+04
     0.39131E+03    0.78262E+03    0.48611E+04
     0.61872E+03    0.61872E+03    0.48611E+04
    -0.61872E+03   -0.61872E+03    0.68056E+04
    -0.39131E+03   -0.78262E+03    0.68056E+04
     0.00000E+00   -0.87500E+03    0.68056E+04
     0.39131E+03   -0.78262E+03    0.68056E+04
     0.61872E+03   -0.61872E+03    0.68056E+04
    -0.78262E+03   -0.39131E+03    0.68056E+04
    -0.30936E+03   -0.30936E+03    0.68056E+04
     0.00000E+00   -0.43750E+03    0.68056E+04
     0.30936E+03   -0.30936E+03    0.68056E+04
     0.78262E+03   -0.39131E+03    0.68056E+04
    -0.87500E+03    0.00000E+00    0.68056E+04
    -0.43750E+03    0.00000E+00    0.68056E+04
     0.00000E+00    0.00000E+00    0.68056E+04
     0.43750E+03    0.00000E+00    0.68056E+04
     0.87500E+03    0.00000E+00    0.68056E+04
    -0.78262E+03    0.39131E+03    0.68056E+04
    -0.30936E+03    0.30936E+03    0.68056E+04
     0.00000E+00    0.43750E+03    0.68056E+04
     0.30936E+03    0.30936E+03    0.68056E+04
     0.78262E+03    0.39131E+03    0.68056E+04
    -0.61872E+03    0.61872E+03    0.68056E+04
    -0.39131E+03    0.78262E+03    0.68056E+04
     0.00000E+00    0.87500E+03    0.68056E+04
     0.39131E+03    0.78262E+03    0.68056E+04
     0.61872E+03    0.61872E+03    0.68056E+04
    -0.61872E+03   -0.61872E+03    0.87500E+04
    -0.39131E+03   -0.78262E+03    0.87500E+04
     0.00000E+00   -0.87500E+03    0.87500E+04
     0.39131E+03   -0.78262E+03    0.87500E+04
     0.61872E+03   -0.61872E+03    0.87500E+04
    -0.78262E+03   -0.39131E+03    0.87500E+04
    -0.30936E+03   -0.30936E+03    0.87500E+04
     0.00000E+00   -0.43750E+03    0.87500E+04
     0.30936E+03   -0.30936E+03    0.87500E+04
     0.78262E+03   -0.39131E+03    0.87500E+04
    -0.87500E+03    0.00000E+00    0.87500E+04
    -0.43750E+03    0.00000E+00    0.87500E+04
     0.00000E+00    0.00000E+00    0.87500E+04
     0.43750E+03    0.00000E+00    0.87500E+04
     0.87500E+03    0.00000E+00    0.87500E+04
    -0.78262E+03    0.39131E+03    0.87500E+04
    -0.30936E+03    0.30936E+03    0.87500E+04
     0.00000E+00    0.43750E+03    0.87500E+04
     0.30936E+03    0.30936E+03    0.87500E+04
     0.78262E+03    0.39131E+03    0.87500E+04
    -0.61872E+03    0.61872E+03    0.87500E+04
    -0.39131E+03    0.78262E+03    0.87500E+04
     0.00000E+00    0.87500E+03    0.87500E+04
     0.39131E+03    0.78262E+03    0.87500E+04
     0.61872E+03    0.61872E+03    0.87500E+04
          1        26        27         2
          6        31        26         1
          1         2         7         6
          2        27        28         3
          2         3         8         7
          3        28        29         4
          3         4         9         8
          4        29        30         5
          5        30        35        10
          4         5        10         9
         11        36        31         6
          6         7        12        11
          7         8        13        12
          8         9        14        13
         10        35        40        15
          9        10        15        14
         16        41        36        11
         11        12        17        16
         12        13        18        17
         13        14        19        18
         15        40        45        20
         14        15        20        19
         22        47        46        21
         21        46        41        16
         16        17        22        21
         23        48        47        22
         17        18        23        22
         24        49        48        23
         18        19        24        23
         20        45        50        25
         25        50        49        24
         19        20        25        24
         26        51        52        27
         31        56        51        26
         27        52        53        28
         28        53        54        29
         29        54        55        30
         30        55        60        35
         36        61        56        31
         35        60        65        40
         41        66        61        36
         40        65        70        45
         47        72        71        46
         46        71        66        41
         48        73        72        47
         49        74        73        48
         45        70        75        50
         50        75        74        49
         51        76        77        52
         56        81        76        51
         52        77        78        53
         53        78        79        54
         54        79        80        55
         55        80        85        60
         61        86        81        56
         60        85        90        65
         66        91        86        61
         65        90        95        70
         72        97        96        71
         71        96        91        66
         73        98        97        72
         74        99        98        73
         70        95       100        75
         75       100        99        74
         76       101       102        77
         81       106       101        76
         77       102       103        78
         78       103       104        79
         79       104       105        80
         80       105       110        85
         86       111       106        81
         85       110       115        90
         91       116       111        86
         90       115       120        95
         97       122       121        96
         96       121       116        91
         98       123       122        97
         99       124       123        98
         95       120       125       100
        100       125       124        99
        101       126       127       102
        106       131       126       101
        102       127       128       103
        103       128       129       104
        104       129       130       105
        105       130       135       110
        111       136       131       106
        110       135       140       115
        116       141       136       111
        115       140       145       120
        122       147       146       121
        121       146       141       116
        123       148       147       122
        124       149       148       123
        120       145       150       125
        125       150       149       124
        126       151       152       127
        131       156       151       126
        127       152       153       128
        128       153       154       129
        129       154       155       130
        130       155       160       135
        136       161       156       131
        135       160       165       140
        141       166       161       136
        140       165       170       145
        147       172       171       146
        146       171       166       141
        148       173       172       147
        149       174       173       148
        145       170       175       150
        150       175       174       149
        151       176       177       152
        156       181       176       151
        152       177       178       153
        153       178       179       154
        154       179       180       155
        155       180       185       160
        161       186       181       156
        160       185       190       165
        166       191       186       161
        165       190       195       170
        172       197       196       171
        171       196       191       166
        173       198       197       172
        174       199       198       173
        170       195       200       175
        175       200       199       174
        176       201       202       177
        181       206       201       176
        177       202       203       178
        178       203       204       179
        179       204       205       180
        180       205       210       185
        186       211       206       181
        185       210       215       190
        191       216       211       186
        190       215       220       195
        197       222       221       196
        196       221       216       191
        198       223       222       197
        199       224       223       198
        195       220       225       200
        200       225       224       199
        201       226       227       202
        206       231       226       201
        226       231       232       227
        202       227       228       203
        227       232       233       228
        203       228       229       204
        228       233       234       229
        204       229       230       205
        205       230       235       210
        229       234       235       230
        211       236       231       206
        231       236       237       232
        232       237       238       233
        233       238       239       234
        210       235       240       215
        234       239       240       235
        216       241       236       211
        236       241       242       237
        237       242       243       238
        238       243       244       239
        215       240       245       220
        239       244       245       240
        222       247       246       221
        221       246       241       216
        241       246       247       242
        223       248       247       222
        242       247       248       243
        224       249       248       223
        243       248       249       244
        220       245       250       225
        225       250       249       224
        244       249       250       245
