 TITLE = "Mesh" 
 VARIABLES = X Y Z 
 ZONE T = "ZONE", N =       27, E =       24, F = FEPOINT, ET =   QUADRILATERAL
    -0.61518E+04   -0.61518E+04   -0.34800E+05
     0.00000E+00   -0.87000E+04   -0.34800E+05
     0.61518E+04   -0.61518E+04   -0.34800E+05
    -0.87000E+04    0.00000E+00   -0.34800E+05
     0.00000E+00    0.00000E+00   -0.34800E+05
     0.87000E+04    0.00000E+00   -0.34800E+05
    -0.61518E+04    0.61518E+04   -0.34800E+05
     0.00000E+00    0.87000E+04   -0.34800E+05
     0.61518E+04    0.61518E+04   -0.34800E+05
    -0.61518E+04   -0.61518E+04    0.00000E+00
     0.00000E+00   -0.87000E+04    0.00000E+00
     0.61518E+04   -0.61518E+04    0.00000E+00
    -0.87000E+04    0.00000E+00    0.00000E+00
     0.00000E+00    0.00000E+00    0.00000E+00
     0.87000E+04    0.00000E+00    0.00000E+00
    -0.61518E+04    0.61518E+04    0.00000E+00
     0.00000E+00    0.87000E+04    0.00000E+00
     0.61518E+04    0.61518E+04    0.00000E+00
    -0.61518E+04   -0.61518E+04    0.34800E+05
     0.00000E+00   -0.87000E+04    0.34800E+05
     0.61518E+04   -0.61518E+04    0.34800E+05
    -0.87000E+04    0.00000E+00    0.34800E+05
     0.00000E+00    0.00000E+00    0.34800E+05
     0.87000E+04    0.00000E+00    0.34800E+05
    -0.61518E+04    0.61518E+04    0.34800E+05
     0.00000E+00    0.87000E+04    0.34800E+05
     0.61518E+04    0.61518E+04    0.34800E+05
          1        10        11         2
          4        13        10         1
          1         2         5         4
          2        11        12         3
          3        12        15         6
          2         3         6         5
          8        17        16         7
          7        16        13         4
          4         5         8         7
          6        15        18         9
          9        18        17         8
          5         6         9         8
         10        19        20        11
         13        22        19        10
         19        22        23        20
         11        20        21        12
         12        21        24        15
         20        23        24        21
         17        26        25        16
         16        25        22        13
         22        25        26        23
         15        24        27        18
         18        27        26        17
         23        26        27        24
