 TITLE = "Mesh" 
 VARIABLES = X Y Z 
 ZONE T = "ZONE", N =     2662, E =     2100, F = FEPOINT, ET =           BRICK
    -0.70711E+00   -0.70711E+00   -0.50000E+01
    -0.62470E+00   -0.78087E+00   -0.50000E+01
    -0.51450E+00   -0.85749E+00   -0.50000E+01
    -0.37139E+00   -0.92848E+00   -0.50000E+01
    -0.19612E+00   -0.98058E+00   -0.50000E+01
     0.00000E+00   -0.10000E+01   -0.50000E+01
     0.19612E+00   -0.98058E+00   -0.50000E+01
     0.37139E+00   -0.92848E+00   -0.50000E+01
     0.51450E+00   -0.85749E+00   -0.50000E+01
     0.62470E+00   -0.78087E+00   -0.50000E+01
     0.70711E+00   -0.70711E+00   -0.50000E+01
    -0.78087E+00   -0.62470E+00   -0.50000E+01
    -0.56569E+00   -0.56569E+00   -0.50000E+01
    -0.48000E+00   -0.64000E+00   -0.50000E+01
    -0.35777E+00   -0.71554E+00   -0.50000E+01
    -0.19403E+00   -0.77611E+00   -0.50000E+01
     0.00000E+00   -0.80000E+00   -0.50000E+01
     0.19403E+00   -0.77611E+00   -0.50000E+01
     0.35777E+00   -0.71554E+00   -0.50000E+01
     0.48000E+00   -0.64000E+00   -0.50000E+01
     0.56569E+00   -0.56569E+00   -0.50000E+01
     0.78087E+00   -0.62470E+00   -0.50000E+01
    -0.85749E+00   -0.51450E+00   -0.50000E+01
    -0.64000E+00   -0.48000E+00   -0.50000E+01
    -0.42426E+00   -0.42426E+00   -0.50000E+01
    -0.33282E+00   -0.49923E+00   -0.50000E+01
    -0.18974E+00   -0.56921E+00   -0.50000E+01
     0.00000E+00   -0.60000E+00   -0.50000E+01
     0.18974E+00   -0.56921E+00   -0.50000E+01
     0.33282E+00   -0.49923E+00   -0.50000E+01
     0.42426E+00   -0.42426E+00   -0.50000E+01
     0.64000E+00   -0.48000E+00   -0.50000E+01
     0.85749E+00   -0.51450E+00   -0.50000E+01
    -0.92848E+00   -0.37139E+00   -0.50000E+01
    -0.71554E+00   -0.35777E+00   -0.50000E+01
    -0.49923E+00   -0.33282E+00   -0.50000E+01
    -0.28284E+00   -0.28284E+00   -0.50000E+01
    -0.17889E+00   -0.35777E+00   -0.50000E+01
     0.00000E+00   -0.40000E+00   -0.50000E+01
     0.17889E+00   -0.35777E+00   -0.50000E+01
     0.28284E+00   -0.28284E+00   -0.50000E+01
     0.49923E+00   -0.33282E+00   -0.50000E+01
     0.71554E+00   -0.35777E+00   -0.50000E+01
     0.92848E+00   -0.37139E+00   -0.50000E+01
    -0.98058E+00   -0.19612E+00   -0.50000E+01
    -0.77611E+00   -0.19403E+00   -0.50000E+01
    -0.56921E+00   -0.18974E+00   -0.50000E+01
    -0.35777E+00   -0.17889E+00   -0.50000E+01
    -0.14142E+00   -0.14142E+00   -0.50000E+01
     0.00000E+00   -0.20000E+00   -0.50000E+01
     0.14142E+00   -0.14142E+00   -0.50000E+01
     0.35777E+00   -0.17889E+00   -0.50000E+01
     0.56921E+00   -0.18974E+00   -0.50000E+01
     0.77611E+00   -0.19403E+00   -0.50000E+01
     0.98058E+00   -0.19612E+00   -0.50000E+01
    -0.10000E+01    0.00000E+00   -0.50000E+01
    -0.80000E+00    0.00000E+00   -0.50000E+01
    -0.60000E+00    0.00000E+00   -0.50000E+01
    -0.40000E+00    0.00000E+00   -0.50000E+01
    -0.20000E+00    0.00000E+00   -0.50000E+01
     0.00000E+00    0.00000E+00   -0.50000E+01
     0.20000E+00    0.00000E+00   -0.50000E+01
     0.40000E+00    0.00000E+00   -0.50000E+01
     0.60000E+00    0.00000E+00   -0.50000E+01
     0.80000E+00    0.00000E+00   -0.50000E+01
     0.10000E+01    0.00000E+00   -0.50000E+01
    -0.98058E+00    0.19612E+00   -0.50000E+01
    -0.77611E+00    0.19403E+00   -0.50000E+01
    -0.56921E+00    0.18974E+00   -0.50000E+01
    -0.35777E+00    0.17889E+00   -0.50000E+01
    -0.14142E+00    0.14142E+00   -0.50000E+01
     0.00000E+00    0.20000E+00   -0.50000E+01
     0.14142E+00    0.14142E+00   -0.50000E+01
     0.35777E+00    0.17889E+00   -0.50000E+01
     0.56921E+00    0.18974E+00   -0.50000E+01
     0.77611E+00    0.19403E+00   -0.50000E+01
     0.98058E+00    0.19612E+00   -0.50000E+01
    -0.92848E+00    0.37139E+00   -0.50000E+01
    -0.71554E+00    0.35777E+00   -0.50000E+01
    -0.49923E+00    0.33282E+00   -0.50000E+01
    -0.28284E+00    0.28284E+00   -0.50000E+01
    -0.17889E+00    0.35777E+00   -0.50000E+01
     0.00000E+00    0.40000E+00   -0.50000E+01
     0.17889E+00    0.35777E+00   -0.50000E+01
     0.28284E+00    0.28284E+00   -0.50000E+01
     0.49923E+00    0.33282E+00   -0.50000E+01
     0.71554E+00    0.35777E+00   -0.50000E+01
     0.92848E+00    0.37139E+00   -0.50000E+01
    -0.85749E+00    0.51450E+00   -0.50000E+01
    -0.64000E+00    0.48000E+00   -0.50000E+01
    -0.42426E+00    0.42426E+00   -0.50000E+01
    -0.33282E+00    0.49923E+00   -0.50000E+01
    -0.18974E+00    0.56921E+00   -0.50000E+01
     0.00000E+00    0.60000E+00   -0.50000E+01
     0.18974E+00    0.56921E+00   -0.50000E+01
     0.33282E+00    0.49923E+00   -0.50000E+01
     0.42426E+00    0.42426E+00   -0.50000E+01
     0.64000E+00    0.48000E+00   -0.50000E+01
     0.85749E+00    0.51450E+00   -0.50000E+01
    -0.78087E+00    0.62470E+00   -0.50000E+01
    -0.56569E+00    0.56569E+00   -0.50000E+01
    -0.48000E+00    0.64000E+00   -0.50000E+01
    -0.35777E+00    0.71554E+00   -0.50000E+01
    -0.19403E+00    0.77611E+00   -0.50000E+01
     0.00000E+00    0.80000E+00   -0.50000E+01
     0.19403E+00    0.77611E+00   -0.50000E+01
     0.35777E+00    0.71554E+00   -0.50000E+01
     0.48000E+00    0.64000E+00   -0.50000E+01
     0.56569E+00    0.56569E+00   -0.50000E+01
     0.78087E+00    0.62470E+00   -0.50000E+01
    -0.70711E+00    0.70711E+00   -0.50000E+01
    -0.62470E+00    0.78087E+00   -0.50000E+01
    -0.51450E+00    0.85749E+00   -0.50000E+01
    -0.37139E+00    0.92848E+00   -0.50000E+01
    -0.19612E+00    0.98058E+00   -0.50000E+01
     0.00000E+00    0.10000E+01   -0.50000E+01
     0.19612E+00    0.98058E+00   -0.50000E+01
     0.37139E+00    0.92848E+00   -0.50000E+01
     0.51450E+00    0.85749E+00   -0.50000E+01
     0.62470E+00    0.78087E+00   -0.50000E+01
     0.70711E+00    0.70711E+00   -0.50000E+01
    -0.70711E+00   -0.70711E+00   -0.45238E+01
    -0.62470E+00   -0.78087E+00   -0.45238E+01
    -0.51450E+00   -0.85749E+00   -0.45238E+01
    -0.37139E+00   -0.92848E+00   -0.45238E+01
    -0.19612E+00   -0.98058E+00   -0.45238E+01
     0.00000E+00   -0.10000E+01   -0.45238E+01
     0.19612E+00   -0.98058E+00   -0.45238E+01
     0.37139E+00   -0.92848E+00   -0.45238E+01
     0.51450E+00   -0.85749E+00   -0.45238E+01
     0.62470E+00   -0.78087E+00   -0.45238E+01
     0.70711E+00   -0.70711E+00   -0.45238E+01
    -0.78087E+00   -0.62470E+00   -0.45238E+01
    -0.56569E+00   -0.56569E+00   -0.45238E+01
    -0.48000E+00   -0.64000E+00   -0.45238E+01
    -0.35777E+00   -0.71554E+00   -0.45238E+01
    -0.19403E+00   -0.77611E+00   -0.45238E+01
     0.00000E+00   -0.80000E+00   -0.45238E+01
     0.19403E+00   -0.77611E+00   -0.45238E+01
     0.35777E+00   -0.71554E+00   -0.45238E+01
     0.48000E+00   -0.64000E+00   -0.45238E+01
     0.56569E+00   -0.56569E+00   -0.45238E+01
     0.78087E+00   -0.62470E+00   -0.45238E+01
    -0.85749E+00   -0.51450E+00   -0.45238E+01
    -0.64000E+00   -0.48000E+00   -0.45238E+01
    -0.42426E+00   -0.42426E+00   -0.45238E+01
    -0.33282E+00   -0.49923E+00   -0.45238E+01
    -0.18974E+00   -0.56921E+00   -0.45238E+01
     0.00000E+00   -0.60000E+00   -0.45238E+01
     0.18974E+00   -0.56921E+00   -0.45238E+01
     0.33282E+00   -0.49923E+00   -0.45238E+01
     0.42426E+00   -0.42426E+00   -0.45238E+01
     0.64000E+00   -0.48000E+00   -0.45238E+01
     0.85749E+00   -0.51450E+00   -0.45238E+01
    -0.92848E+00   -0.37139E+00   -0.45238E+01
    -0.71554E+00   -0.35777E+00   -0.45238E+01
    -0.49923E+00   -0.33282E+00   -0.45238E+01
    -0.28284E+00   -0.28284E+00   -0.45238E+01
    -0.17889E+00   -0.35777E+00   -0.45238E+01
     0.00000E+00   -0.40000E+00   -0.45238E+01
     0.17889E+00   -0.35777E+00   -0.45238E+01
     0.28284E+00   -0.28284E+00   -0.45238E+01
     0.49923E+00   -0.33282E+00   -0.45238E+01
     0.71554E+00   -0.35777E+00   -0.45238E+01
     0.92848E+00   -0.37139E+00   -0.45238E+01
    -0.98058E+00   -0.19612E+00   -0.45238E+01
    -0.77611E+00   -0.19403E+00   -0.45238E+01
    -0.56921E+00   -0.18974E+00   -0.45238E+01
    -0.35777E+00   -0.17889E+00   -0.45238E+01
    -0.14142E+00   -0.14142E+00   -0.45238E+01
     0.00000E+00   -0.20000E+00   -0.45238E+01
     0.14142E+00   -0.14142E+00   -0.45238E+01
     0.35777E+00   -0.17889E+00   -0.45238E+01
     0.56921E+00   -0.18974E+00   -0.45238E+01
     0.77611E+00   -0.19403E+00   -0.45238E+01
     0.98058E+00   -0.19612E+00   -0.45238E+01
    -0.10000E+01    0.00000E+00   -0.45238E+01
    -0.80000E+00    0.00000E+00   -0.45238E+01
    -0.60000E+00    0.00000E+00   -0.45238E+01
    -0.40000E+00    0.00000E+00   -0.45238E+01
    -0.20000E+00    0.00000E+00   -0.45238E+01
     0.00000E+00    0.00000E+00   -0.45238E+01
     0.20000E+00    0.00000E+00   -0.45238E+01
     0.40000E+00    0.00000E+00   -0.45238E+01
     0.60000E+00    0.00000E+00   -0.45238E+01
     0.80000E+00    0.00000E+00   -0.45238E+01
     0.10000E+01    0.00000E+00   -0.45238E+01
    -0.98058E+00    0.19612E+00   -0.45238E+01
    -0.77611E+00    0.19403E+00   -0.45238E+01
    -0.56921E+00    0.18974E+00   -0.45238E+01
    -0.35777E+00    0.17889E+00   -0.45238E+01
    -0.14142E+00    0.14142E+00   -0.45238E+01
     0.00000E+00    0.20000E+00   -0.45238E+01
     0.14142E+00    0.14142E+00   -0.45238E+01
     0.35777E+00    0.17889E+00   -0.45238E+01
     0.56921E+00    0.18974E+00   -0.45238E+01
     0.77611E+00    0.19403E+00   -0.45238E+01
     0.98058E+00    0.19612E+00   -0.45238E+01
    -0.92848E+00    0.37139E+00   -0.45238E+01
    -0.71554E+00    0.35777E+00   -0.45238E+01
    -0.49923E+00    0.33282E+00   -0.45238E+01
    -0.28284E+00    0.28284E+00   -0.45238E+01
    -0.17889E+00    0.35777E+00   -0.45238E+01
     0.00000E+00    0.40000E+00   -0.45238E+01
     0.17889E+00    0.35777E+00   -0.45238E+01
     0.28284E+00    0.28284E+00   -0.45238E+01
     0.49923E+00    0.33282E+00   -0.45238E+01
     0.71554E+00    0.35777E+00   -0.45238E+01
     0.92848E+00    0.37139E+00   -0.45238E+01
    -0.85749E+00    0.51450E+00   -0.45238E+01
    -0.64000E+00    0.48000E+00   -0.45238E+01
    -0.42426E+00    0.42426E+00   -0.45238E+01
    -0.33282E+00    0.49923E+00   -0.45238E+01
    -0.18974E+00    0.56921E+00   -0.45238E+01
     0.00000E+00    0.60000E+00   -0.45238E+01
     0.18974E+00    0.56921E+00   -0.45238E+01
     0.33282E+00    0.49923E+00   -0.45238E+01
     0.42426E+00    0.42426E+00   -0.45238E+01
     0.64000E+00    0.48000E+00   -0.45238E+01
     0.85749E+00    0.51450E+00   -0.45238E+01
    -0.78087E+00    0.62470E+00   -0.45238E+01
    -0.56569E+00    0.56569E+00   -0.45238E+01
    -0.48000E+00    0.64000E+00   -0.45238E+01
    -0.35777E+00    0.71554E+00   -0.45238E+01
    -0.19403E+00    0.77611E+00   -0.45238E+01
     0.00000E+00    0.80000E+00   -0.45238E+01
     0.19403E+00    0.77611E+00   -0.45238E+01
     0.35777E+00    0.71554E+00   -0.45238E+01
     0.48000E+00    0.64000E+00   -0.45238E+01
     0.56569E+00    0.56569E+00   -0.45238E+01
     0.78087E+00    0.62470E+00   -0.45238E+01
    -0.70711E+00    0.70711E+00   -0.45238E+01
    -0.62470E+00    0.78087E+00   -0.45238E+01
    -0.51450E+00    0.85749E+00   -0.45238E+01
    -0.37139E+00    0.92848E+00   -0.45238E+01
    -0.19612E+00    0.98058E+00   -0.45238E+01
     0.00000E+00    0.10000E+01   -0.45238E+01
     0.19612E+00    0.98058E+00   -0.45238E+01
     0.37139E+00    0.92848E+00   -0.45238E+01
     0.51450E+00    0.85749E+00   -0.45238E+01
     0.62470E+00    0.78087E+00   -0.45238E+01
     0.70711E+00    0.70711E+00   -0.45238E+01
    -0.70711E+00   -0.70711E+00   -0.40476E+01
    -0.62470E+00   -0.78087E+00   -0.40476E+01
    -0.51450E+00   -0.85749E+00   -0.40476E+01
    -0.37139E+00   -0.92848E+00   -0.40476E+01
    -0.19612E+00   -0.98058E+00   -0.40476E+01
     0.00000E+00   -0.10000E+01   -0.40476E+01
     0.19612E+00   -0.98058E+00   -0.40476E+01
     0.37139E+00   -0.92848E+00   -0.40476E+01
     0.51450E+00   -0.85749E+00   -0.40476E+01
     0.62470E+00   -0.78087E+00   -0.40476E+01
     0.70711E+00   -0.70711E+00   -0.40476E+01
    -0.78087E+00   -0.62470E+00   -0.40476E+01
    -0.56569E+00   -0.56569E+00   -0.40476E+01
    -0.48000E+00   -0.64000E+00   -0.40476E+01
    -0.35777E+00   -0.71554E+00   -0.40476E+01
    -0.19403E+00   -0.77611E+00   -0.40476E+01
     0.00000E+00   -0.80000E+00   -0.40476E+01
     0.19403E+00   -0.77611E+00   -0.40476E+01
     0.35777E+00   -0.71554E+00   -0.40476E+01
     0.48000E+00   -0.64000E+00   -0.40476E+01
     0.56569E+00   -0.56569E+00   -0.40476E+01
     0.78087E+00   -0.62470E+00   -0.40476E+01
    -0.85749E+00   -0.51450E+00   -0.40476E+01
    -0.64000E+00   -0.48000E+00   -0.40476E+01
    -0.42426E+00   -0.42426E+00   -0.40476E+01
    -0.33282E+00   -0.49923E+00   -0.40476E+01
    -0.18974E+00   -0.56921E+00   -0.40476E+01
     0.00000E+00   -0.60000E+00   -0.40476E+01
     0.18974E+00   -0.56921E+00   -0.40476E+01
     0.33282E+00   -0.49923E+00   -0.40476E+01
     0.42426E+00   -0.42426E+00   -0.40476E+01
     0.64000E+00   -0.48000E+00   -0.40476E+01
     0.85749E+00   -0.51450E+00   -0.40476E+01
    -0.92848E+00   -0.37139E+00   -0.40476E+01
    -0.71554E+00   -0.35777E+00   -0.40476E+01
    -0.49923E+00   -0.33282E+00   -0.40476E+01
    -0.28284E+00   -0.28284E+00   -0.40476E+01
    -0.17889E+00   -0.35777E+00   -0.40476E+01
     0.00000E+00   -0.40000E+00   -0.40476E+01
     0.17889E+00   -0.35777E+00   -0.40476E+01
     0.28284E+00   -0.28284E+00   -0.40476E+01
     0.49923E+00   -0.33282E+00   -0.40476E+01
     0.71554E+00   -0.35777E+00   -0.40476E+01
     0.92848E+00   -0.37139E+00   -0.40476E+01
    -0.98058E+00   -0.19612E+00   -0.40476E+01
    -0.77611E+00   -0.19403E+00   -0.40476E+01
    -0.56921E+00   -0.18974E+00   -0.40476E+01
    -0.35777E+00   -0.17889E+00   -0.40476E+01
    -0.14142E+00   -0.14142E+00   -0.40476E+01
     0.00000E+00   -0.20000E+00   -0.40476E+01
     0.14142E+00   -0.14142E+00   -0.40476E+01
     0.35777E+00   -0.17889E+00   -0.40476E+01
     0.56921E+00   -0.18974E+00   -0.40476E+01
     0.77611E+00   -0.19403E+00   -0.40476E+01
     0.98058E+00   -0.19612E+00   -0.40476E+01
    -0.10000E+01    0.00000E+00   -0.40476E+01
    -0.80000E+00    0.00000E+00   -0.40476E+01
    -0.60000E+00    0.00000E+00   -0.40476E+01
    -0.40000E+00    0.00000E+00   -0.40476E+01
    -0.20000E+00    0.00000E+00   -0.40476E+01
     0.00000E+00    0.00000E+00   -0.40476E+01
     0.20000E+00    0.00000E+00   -0.40476E+01
     0.40000E+00    0.00000E+00   -0.40476E+01
     0.60000E+00    0.00000E+00   -0.40476E+01
     0.80000E+00    0.00000E+00   -0.40476E+01
     0.10000E+01    0.00000E+00   -0.40476E+01
    -0.98058E+00    0.19612E+00   -0.40476E+01
    -0.77611E+00    0.19403E+00   -0.40476E+01
    -0.56921E+00    0.18974E+00   -0.40476E+01
    -0.35777E+00    0.17889E+00   -0.40476E+01
    -0.14142E+00    0.14142E+00   -0.40476E+01
     0.00000E+00    0.20000E+00   -0.40476E+01
     0.14142E+00    0.14142E+00   -0.40476E+01
     0.35777E+00    0.17889E+00   -0.40476E+01
     0.56921E+00    0.18974E+00   -0.40476E+01
     0.77611E+00    0.19403E+00   -0.40476E+01
     0.98058E+00    0.19612E+00   -0.40476E+01
    -0.92848E+00    0.37139E+00   -0.40476E+01
    -0.71554E+00    0.35777E+00   -0.40476E+01
    -0.49923E+00    0.33282E+00   -0.40476E+01
    -0.28284E+00    0.28284E+00   -0.40476E+01
    -0.17889E+00    0.35777E+00   -0.40476E+01
     0.00000E+00    0.40000E+00   -0.40476E+01
     0.17889E+00    0.35777E+00   -0.40476E+01
     0.28284E+00    0.28284E+00   -0.40476E+01
     0.49923E+00    0.33282E+00   -0.40476E+01
     0.71554E+00    0.35777E+00   -0.40476E+01
     0.92848E+00    0.37139E+00   -0.40476E+01
    -0.85749E+00    0.51450E+00   -0.40476E+01
    -0.64000E+00    0.48000E+00   -0.40476E+01
    -0.42426E+00    0.42426E+00   -0.40476E+01
    -0.33282E+00    0.49923E+00   -0.40476E+01
    -0.18974E+00    0.56921E+00   -0.40476E+01
     0.00000E+00    0.60000E+00   -0.40476E+01
     0.18974E+00    0.56921E+00   -0.40476E+01
     0.33282E+00    0.49923E+00   -0.40476E+01
     0.42426E+00    0.42426E+00   -0.40476E+01
     0.64000E+00    0.48000E+00   -0.40476E+01
     0.85749E+00    0.51450E+00   -0.40476E+01
    -0.78087E+00    0.62470E+00   -0.40476E+01
    -0.56569E+00    0.56569E+00   -0.40476E+01
    -0.48000E+00    0.64000E+00   -0.40476E+01
    -0.35777E+00    0.71554E+00   -0.40476E+01
    -0.19403E+00    0.77611E+00   -0.40476E+01
     0.00000E+00    0.80000E+00   -0.40476E+01
     0.19403E+00    0.77611E+00   -0.40476E+01
     0.35777E+00    0.71554E+00   -0.40476E+01
     0.48000E+00    0.64000E+00   -0.40476E+01
     0.56569E+00    0.56569E+00   -0.40476E+01
     0.78087E+00    0.62470E+00   -0.40476E+01
    -0.70711E+00    0.70711E+00   -0.40476E+01
    -0.62470E+00    0.78087E+00   -0.40476E+01
    -0.51450E+00    0.85749E+00   -0.40476E+01
    -0.37139E+00    0.92848E+00   -0.40476E+01
    -0.19612E+00    0.98058E+00   -0.40476E+01
     0.00000E+00    0.10000E+01   -0.40476E+01
     0.19612E+00    0.98058E+00   -0.40476E+01
     0.37139E+00    0.92848E+00   -0.40476E+01
     0.51450E+00    0.85749E+00   -0.40476E+01
     0.62470E+00    0.78087E+00   -0.40476E+01
     0.70711E+00    0.70711E+00   -0.40476E+01
    -0.70711E+00   -0.70711E+00   -0.35714E+01
    -0.62470E+00   -0.78087E+00   -0.35714E+01
    -0.51450E+00   -0.85749E+00   -0.35714E+01
    -0.37139E+00   -0.92848E+00   -0.35714E+01
    -0.19612E+00   -0.98058E+00   -0.35714E+01
     0.00000E+00   -0.10000E+01   -0.35714E+01
     0.19612E+00   -0.98058E+00   -0.35714E+01
     0.37139E+00   -0.92848E+00   -0.35714E+01
     0.51450E+00   -0.85749E+00   -0.35714E+01
     0.62470E+00   -0.78087E+00   -0.35714E+01
     0.70711E+00   -0.70711E+00   -0.35714E+01
    -0.78087E+00   -0.62470E+00   -0.35714E+01
    -0.56569E+00   -0.56569E+00   -0.35714E+01
    -0.48000E+00   -0.64000E+00   -0.35714E+01
    -0.35777E+00   -0.71554E+00   -0.35714E+01
    -0.19403E+00   -0.77611E+00   -0.35714E+01
     0.00000E+00   -0.80000E+00   -0.35714E+01
     0.19403E+00   -0.77611E+00   -0.35714E+01
     0.35777E+00   -0.71554E+00   -0.35714E+01
     0.48000E+00   -0.64000E+00   -0.35714E+01
     0.56569E+00   -0.56569E+00   -0.35714E+01
     0.78087E+00   -0.62470E+00   -0.35714E+01
    -0.85749E+00   -0.51450E+00   -0.35714E+01
    -0.64000E+00   -0.48000E+00   -0.35714E+01
    -0.42426E+00   -0.42426E+00   -0.35714E+01
    -0.33282E+00   -0.49923E+00   -0.35714E+01
    -0.18974E+00   -0.56921E+00   -0.35714E+01
     0.00000E+00   -0.60000E+00   -0.35714E+01
     0.18974E+00   -0.56921E+00   -0.35714E+01
     0.33282E+00   -0.49923E+00   -0.35714E+01
     0.42426E+00   -0.42426E+00   -0.35714E+01
     0.64000E+00   -0.48000E+00   -0.35714E+01
     0.85749E+00   -0.51450E+00   -0.35714E+01
    -0.92848E+00   -0.37139E+00   -0.35714E+01
    -0.71554E+00   -0.35777E+00   -0.35714E+01
    -0.49923E+00   -0.33282E+00   -0.35714E+01
    -0.28284E+00   -0.28284E+00   -0.35714E+01
    -0.17889E+00   -0.35777E+00   -0.35714E+01
     0.00000E+00   -0.40000E+00   -0.35714E+01
     0.17889E+00   -0.35777E+00   -0.35714E+01
     0.28284E+00   -0.28284E+00   -0.35714E+01
     0.49923E+00   -0.33282E+00   -0.35714E+01
     0.71554E+00   -0.35777E+00   -0.35714E+01
     0.92848E+00   -0.37139E+00   -0.35714E+01
    -0.98058E+00   -0.19612E+00   -0.35714E+01
    -0.77611E+00   -0.19403E+00   -0.35714E+01
    -0.56921E+00   -0.18974E+00   -0.35714E+01
    -0.35777E+00   -0.17889E+00   -0.35714E+01
    -0.14142E+00   -0.14142E+00   -0.35714E+01
     0.00000E+00   -0.20000E+00   -0.35714E+01
     0.14142E+00   -0.14142E+00   -0.35714E+01
     0.35777E+00   -0.17889E+00   -0.35714E+01
     0.56921E+00   -0.18974E+00   -0.35714E+01
     0.77611E+00   -0.19403E+00   -0.35714E+01
     0.98058E+00   -0.19612E+00   -0.35714E+01
    -0.10000E+01    0.00000E+00   -0.35714E+01
    -0.80000E+00    0.00000E+00   -0.35714E+01
    -0.60000E+00    0.00000E+00   -0.35714E+01
    -0.40000E+00    0.00000E+00   -0.35714E+01
    -0.20000E+00    0.00000E+00   -0.35714E+01
     0.00000E+00    0.00000E+00   -0.35714E+01
     0.20000E+00    0.00000E+00   -0.35714E+01
     0.40000E+00    0.00000E+00   -0.35714E+01
     0.60000E+00    0.00000E+00   -0.35714E+01
     0.80000E+00    0.00000E+00   -0.35714E+01
     0.10000E+01    0.00000E+00   -0.35714E+01
    -0.98058E+00    0.19612E+00   -0.35714E+01
    -0.77611E+00    0.19403E+00   -0.35714E+01
    -0.56921E+00    0.18974E+00   -0.35714E+01
    -0.35777E+00    0.17889E+00   -0.35714E+01
    -0.14142E+00    0.14142E+00   -0.35714E+01
     0.00000E+00    0.20000E+00   -0.35714E+01
     0.14142E+00    0.14142E+00   -0.35714E+01
     0.35777E+00    0.17889E+00   -0.35714E+01
     0.56921E+00    0.18974E+00   -0.35714E+01
     0.77611E+00    0.19403E+00   -0.35714E+01
     0.98058E+00    0.19612E+00   -0.35714E+01
    -0.92848E+00    0.37139E+00   -0.35714E+01
    -0.71554E+00    0.35777E+00   -0.35714E+01
    -0.49923E+00    0.33282E+00   -0.35714E+01
    -0.28284E+00    0.28284E+00   -0.35714E+01
    -0.17889E+00    0.35777E+00   -0.35714E+01
     0.00000E+00    0.40000E+00   -0.35714E+01
     0.17889E+00    0.35777E+00   -0.35714E+01
     0.28284E+00    0.28284E+00   -0.35714E+01
     0.49923E+00    0.33282E+00   -0.35714E+01
     0.71554E+00    0.35777E+00   -0.35714E+01
     0.92848E+00    0.37139E+00   -0.35714E+01
    -0.85749E+00    0.51450E+00   -0.35714E+01
    -0.64000E+00    0.48000E+00   -0.35714E+01
    -0.42426E+00    0.42426E+00   -0.35714E+01
    -0.33282E+00    0.49923E+00   -0.35714E+01
    -0.18974E+00    0.56921E+00   -0.35714E+01
     0.00000E+00    0.60000E+00   -0.35714E+01
     0.18974E+00    0.56921E+00   -0.35714E+01
     0.33282E+00    0.49923E+00   -0.35714E+01
     0.42426E+00    0.42426E+00   -0.35714E+01
     0.64000E+00    0.48000E+00   -0.35714E+01
     0.85749E+00    0.51450E+00   -0.35714E+01
    -0.78087E+00    0.62470E+00   -0.35714E+01
    -0.56569E+00    0.56569E+00   -0.35714E+01
    -0.48000E+00    0.64000E+00   -0.35714E+01
    -0.35777E+00    0.71554E+00   -0.35714E+01
    -0.19403E+00    0.77611E+00   -0.35714E+01
     0.00000E+00    0.80000E+00   -0.35714E+01
     0.19403E+00    0.77611E+00   -0.35714E+01
     0.35777E+00    0.71554E+00   -0.35714E+01
     0.48000E+00    0.64000E+00   -0.35714E+01
     0.56569E+00    0.56569E+00   -0.35714E+01
     0.78087E+00    0.62470E+00   -0.35714E+01
    -0.70711E+00    0.70711E+00   -0.35714E+01
    -0.62470E+00    0.78087E+00   -0.35714E+01
    -0.51450E+00    0.85749E+00   -0.35714E+01
    -0.37139E+00    0.92848E+00   -0.35714E+01
    -0.19612E+00    0.98058E+00   -0.35714E+01
     0.00000E+00    0.10000E+01   -0.35714E+01
     0.19612E+00    0.98058E+00   -0.35714E+01
     0.37139E+00    0.92848E+00   -0.35714E+01
     0.51450E+00    0.85749E+00   -0.35714E+01
     0.62470E+00    0.78087E+00   -0.35714E+01
     0.70711E+00    0.70711E+00   -0.35714E+01
    -0.70711E+00   -0.70711E+00   -0.30952E+01
    -0.62470E+00   -0.78087E+00   -0.30952E+01
    -0.51450E+00   -0.85749E+00   -0.30952E+01
    -0.37139E+00   -0.92848E+00   -0.30952E+01
    -0.19612E+00   -0.98058E+00   -0.30952E+01
     0.00000E+00   -0.10000E+01   -0.30952E+01
     0.19612E+00   -0.98058E+00   -0.30952E+01
     0.37139E+00   -0.92848E+00   -0.30952E+01
     0.51450E+00   -0.85749E+00   -0.30952E+01
     0.62470E+00   -0.78087E+00   -0.30952E+01
     0.70711E+00   -0.70711E+00   -0.30952E+01
    -0.78087E+00   -0.62470E+00   -0.30952E+01
    -0.56569E+00   -0.56569E+00   -0.30952E+01
    -0.48000E+00   -0.64000E+00   -0.30952E+01
    -0.35777E+00   -0.71554E+00   -0.30952E+01
    -0.19403E+00   -0.77611E+00   -0.30952E+01
     0.00000E+00   -0.80000E+00   -0.30952E+01
     0.19403E+00   -0.77611E+00   -0.30952E+01
     0.35777E+00   -0.71554E+00   -0.30952E+01
     0.48000E+00   -0.64000E+00   -0.30952E+01
     0.56569E+00   -0.56569E+00   -0.30952E+01
     0.78087E+00   -0.62470E+00   -0.30952E+01
    -0.85749E+00   -0.51450E+00   -0.30952E+01
    -0.64000E+00   -0.48000E+00   -0.30952E+01
    -0.42426E+00   -0.42426E+00   -0.30952E+01
    -0.33282E+00   -0.49923E+00   -0.30952E+01
    -0.18974E+00   -0.56921E+00   -0.30952E+01
     0.00000E+00   -0.60000E+00   -0.30952E+01
     0.18974E+00   -0.56921E+00   -0.30952E+01
     0.33282E+00   -0.49923E+00   -0.30952E+01
     0.42426E+00   -0.42426E+00   -0.30952E+01
     0.64000E+00   -0.48000E+00   -0.30952E+01
     0.85749E+00   -0.51450E+00   -0.30952E+01
    -0.92848E+00   -0.37139E+00   -0.30952E+01
    -0.71554E+00   -0.35777E+00   -0.30952E+01
    -0.49923E+00   -0.33282E+00   -0.30952E+01
    -0.28284E+00   -0.28284E+00   -0.30952E+01
    -0.17889E+00   -0.35777E+00   -0.30952E+01
     0.00000E+00   -0.40000E+00   -0.30952E+01
     0.17889E+00   -0.35777E+00   -0.30952E+01
     0.28284E+00   -0.28284E+00   -0.30952E+01
     0.49923E+00   -0.33282E+00   -0.30952E+01
     0.71554E+00   -0.35777E+00   -0.30952E+01
     0.92848E+00   -0.37139E+00   -0.30952E+01
    -0.98058E+00   -0.19612E+00   -0.30952E+01
    -0.77611E+00   -0.19403E+00   -0.30952E+01
    -0.56921E+00   -0.18974E+00   -0.30952E+01
    -0.35777E+00   -0.17889E+00   -0.30952E+01
    -0.14142E+00   -0.14142E+00   -0.30952E+01
     0.00000E+00   -0.20000E+00   -0.30952E+01
     0.14142E+00   -0.14142E+00   -0.30952E+01
     0.35777E+00   -0.17889E+00   -0.30952E+01
     0.56921E+00   -0.18974E+00   -0.30952E+01
     0.77611E+00   -0.19403E+00   -0.30952E+01
     0.98058E+00   -0.19612E+00   -0.30952E+01
    -0.10000E+01    0.00000E+00   -0.30952E+01
    -0.80000E+00    0.00000E+00   -0.30952E+01
    -0.60000E+00    0.00000E+00   -0.30952E+01
    -0.40000E+00    0.00000E+00   -0.30952E+01
    -0.20000E+00    0.00000E+00   -0.30952E+01
     0.00000E+00    0.00000E+00   -0.30952E+01
     0.20000E+00    0.00000E+00   -0.30952E+01
     0.40000E+00    0.00000E+00   -0.30952E+01
     0.60000E+00    0.00000E+00   -0.30952E+01
     0.80000E+00    0.00000E+00   -0.30952E+01
     0.10000E+01    0.00000E+00   -0.30952E+01
    -0.98058E+00    0.19612E+00   -0.30952E+01
    -0.77611E+00    0.19403E+00   -0.30952E+01
    -0.56921E+00    0.18974E+00   -0.30952E+01
    -0.35777E+00    0.17889E+00   -0.30952E+01
    -0.14142E+00    0.14142E+00   -0.30952E+01
     0.00000E+00    0.20000E+00   -0.30952E+01
     0.14142E+00    0.14142E+00   -0.30952E+01
     0.35777E+00    0.17889E+00   -0.30952E+01
     0.56921E+00    0.18974E+00   -0.30952E+01
     0.77611E+00    0.19403E+00   -0.30952E+01
     0.98058E+00    0.19612E+00   -0.30952E+01
    -0.92848E+00    0.37139E+00   -0.30952E+01
    -0.71554E+00    0.35777E+00   -0.30952E+01
    -0.49923E+00    0.33282E+00   -0.30952E+01
    -0.28284E+00    0.28284E+00   -0.30952E+01
    -0.17889E+00    0.35777E+00   -0.30952E+01
     0.00000E+00    0.40000E+00   -0.30952E+01
     0.17889E+00    0.35777E+00   -0.30952E+01
     0.28284E+00    0.28284E+00   -0.30952E+01
     0.49923E+00    0.33282E+00   -0.30952E+01
     0.71554E+00    0.35777E+00   -0.30952E+01
     0.92848E+00    0.37139E+00   -0.30952E+01
    -0.85749E+00    0.51450E+00   -0.30952E+01
    -0.64000E+00    0.48000E+00   -0.30952E+01
    -0.42426E+00    0.42426E+00   -0.30952E+01
    -0.33282E+00    0.49923E+00   -0.30952E+01
    -0.18974E+00    0.56921E+00   -0.30952E+01
     0.00000E+00    0.60000E+00   -0.30952E+01
     0.18974E+00    0.56921E+00   -0.30952E+01
     0.33282E+00    0.49923E+00   -0.30952E+01
     0.42426E+00    0.42426E+00   -0.30952E+01
     0.64000E+00    0.48000E+00   -0.30952E+01
     0.85749E+00    0.51450E+00   -0.30952E+01
    -0.78087E+00    0.62470E+00   -0.30952E+01
    -0.56569E+00    0.56569E+00   -0.30952E+01
    -0.48000E+00    0.64000E+00   -0.30952E+01
    -0.35777E+00    0.71554E+00   -0.30952E+01
    -0.19403E+00    0.77611E+00   -0.30952E+01
     0.00000E+00    0.80000E+00   -0.30952E+01
     0.19403E+00    0.77611E+00   -0.30952E+01
     0.35777E+00    0.71554E+00   -0.30952E+01
     0.48000E+00    0.64000E+00   -0.30952E+01
     0.56569E+00    0.56569E+00   -0.30952E+01
     0.78087E+00    0.62470E+00   -0.30952E+01
    -0.70711E+00    0.70711E+00   -0.30952E+01
    -0.62470E+00    0.78087E+00   -0.30952E+01
    -0.51450E+00    0.85749E+00   -0.30952E+01
    -0.37139E+00    0.92848E+00   -0.30952E+01
    -0.19612E+00    0.98058E+00   -0.30952E+01
     0.00000E+00    0.10000E+01   -0.30952E+01
     0.19612E+00    0.98058E+00   -0.30952E+01
     0.37139E+00    0.92848E+00   -0.30952E+01
     0.51450E+00    0.85749E+00   -0.30952E+01
     0.62470E+00    0.78087E+00   -0.30952E+01
     0.70711E+00    0.70711E+00   -0.30952E+01
    -0.70711E+00   -0.70711E+00   -0.26190E+01
    -0.62470E+00   -0.78087E+00   -0.26190E+01
    -0.51450E+00   -0.85749E+00   -0.26190E+01
    -0.37139E+00   -0.92848E+00   -0.26190E+01
    -0.19612E+00   -0.98058E+00   -0.26190E+01
     0.00000E+00   -0.10000E+01   -0.26190E+01
     0.19612E+00   -0.98058E+00   -0.26190E+01
     0.37139E+00   -0.92848E+00   -0.26190E+01
     0.51450E+00   -0.85749E+00   -0.26190E+01
     0.62470E+00   -0.78087E+00   -0.26190E+01
     0.70711E+00   -0.70711E+00   -0.26190E+01
    -0.78087E+00   -0.62470E+00   -0.26190E+01
    -0.56569E+00   -0.56569E+00   -0.26190E+01
    -0.48000E+00   -0.64000E+00   -0.26190E+01
    -0.35777E+00   -0.71554E+00   -0.26190E+01
    -0.19403E+00   -0.77611E+00   -0.26190E+01
     0.00000E+00   -0.80000E+00   -0.26190E+01
     0.19403E+00   -0.77611E+00   -0.26190E+01
     0.35777E+00   -0.71554E+00   -0.26190E+01
     0.48000E+00   -0.64000E+00   -0.26190E+01
     0.56569E+00   -0.56569E+00   -0.26190E+01
     0.78087E+00   -0.62470E+00   -0.26190E+01
    -0.85749E+00   -0.51450E+00   -0.26190E+01
    -0.64000E+00   -0.48000E+00   -0.26190E+01
    -0.42426E+00   -0.42426E+00   -0.26190E+01
    -0.33282E+00   -0.49923E+00   -0.26190E+01
    -0.18974E+00   -0.56921E+00   -0.26190E+01
     0.00000E+00   -0.60000E+00   -0.26190E+01
     0.18974E+00   -0.56921E+00   -0.26190E+01
     0.33282E+00   -0.49923E+00   -0.26190E+01