VARIABLES="X" "Y" "Z" "BURGERS"
ZONE N=10, E=10, F=FEPOINT, ET=LINESEG
0.000000	13.000000	0.000000	2
13.000000	0.000000	0.000000	2
0.000000	0.000000	13.000000	2
13.000000	13.000000	13.000000	2
-59.500000	80.500000	4.000000	1
10.500000	10.500000	4.000000	1
80.500000	-59.500000	4.000000	1
-58.500000	81.500000	2.000000	1
11.500000	11.500000	2.000000	1
81.500000	-58.500000	2.000000	1

1 3
3 4
4 2
2 1
1 4
2 3
10 9
7 6
6 5
9 8
