ITEM: TIMESTEP
1
ITEM: NUMBER OF ATOMS
546
ITEM: BOX BOUNDS pp pp ff
-136.444 136.444
-222.73 222.73
-96.8205 95.6004
ITEM: ATOMS type x y z c_centro c_cna c_ackland Color.R Color.G Color.B selection
1 -40.523 30.4755 -1.23798 6.02824 4 3 1 0 0 0
1 -37.9893 30.5227 1.32551 1.64419 4 1 0 1 0.0999999 0
1 -38.2531 30.5002 -1.28633 0.551786 4 0 0.2 0 1 0
1 -39.002 28.288 0.00269673 3.1461 4 1 0 1 0.0999999 0
1 -38.9418 30.5114 -3.87012 3.015 4 1 0 1 0.0999999 0
1 -35.1999 30.5159 1.29311 3.25357 4 1 0 1 0.0999999 0
1 -35.9498 30.4873 -1.27255 0.920538 4 0 0.2 0 1 0
1 -36.2279 28.2245 0.042645 1.70649 4 1 0 1 0.0999999 0
1 -37.9011 28.2363 -2.59635 1.86986 4 1 0 1 0.0999999 0
1 -36.1475 30.522 -3.89844 1.44183 4 1 0 1 0.0999999 0
1 -33.6745 30.4956 -1.33961 6.92945 4 3 1 0 0 0
1 -35.1319 28.2837 -2.57307 3.38074 4 1 0 1 0.0999999 0
1 46.5964 30.5326 1.26972 7.09125 4 1 0 1 0.0999999 0
1 44.8272 30.5322 -1.27564 7.01395 4 1 0 1 0.0999999 0
1 45.655 28.2542 0.0438993 0.106274 4 1 0 1 0.0999999 0
1 45.6954 30.5319 -3.89547 0.0895438 4 1 0 1 0.0999999 0
1 49.3432 30.5315 1.34837 0.0886917 4 1 0 1 0.0999999 0
1 50.2126 30.5332 -1.27151 7.02343 4 1 0 1 0.0999999 0
1 48.4116 28.3263 -0.00212765 7.02379 4 1 0 1 0.0999999 0
1 46.6403 28.3263 -2.54314 6.9998 4 1 0 1 0.0999999 0
1 48.4426 30.5323 -3.81641 7.08605 4 1 0 1 0.0999999 0
1 49.3984 28.254 -2.58867 0.10899 4 1 0 1 0.0999999 0
1 -40.517 34.9554 -1.21942 6.47429 4 3 1 0 0 0
1 -38.0184 34.9806 1.33136 1.55721 4 1 0 1 0.0999999 0
1 -38.2275 35.023 -1.31929 0.775418 4 0 0.2 0 1 0
1 -39.1157 32.748 0.000339057 8.00596 4 1 0 1 0.0999999 0
1 -38.9396 34.986 -3.87236 3.15902 4 1 0 1 0.0999999 0
1 -35.2138 34.9836 1.28947 3.19869 4 1 0 1 0.0999999 0
1 -35.9327 35.0035 -1.28707 0.764233 4 0 0.2 0 1 0
1 -36.3222 32.7505 0.0225608 4.6998 4 1 0 1 0.0999999 0
1 -37.8167 32.7683 -2.59424 5.05447 4 1 0 1 0.0999999 0
1 -36.1372 34.9776 -3.91158 1.47067 4 1 0 1 0.0999999 0
1 -33.6494 34.9787 -1.3602 6.56868 4 3 1 0 0 0
1 -35.0411 32.7438 -2.575 8.29208 4 1 0 1 0.0999999 0
1 46.5797 34.982 1.26721 7.11976 4 1 0 1 0.0999999 0
1 44.8159 34.9819 -1.27927 7.02865 4 1 0 1 0.0999999 0
1 45.6132 32.7566 0.0625654 0.159114 4 1 0 1 0.0999999 0
1 45.6905 34.9827 -3.89209 0.0809848 4 1 0 1 0.0999999 0
1 49.3193 34.9806 1.34276 0.0803075 4 1 0 1 0.0999999 0
1 50.1947 34.9818 -1.27031 7.03193 4 1 0 1 0.0999999 0
1 48.3898 32.7545 -0.0126103 13.9544 4 2 1 0 0 0
1 46.6354 32.7558 -2.53574 13.9587 4 2 1 0 0 0
1 48.4309 34.9825 -3.81626 7.11662 4 1 0 1 0.0999999 0
1 49.4126 32.7556 -2.61095 0.160639 4 1 0 1 0.0999999 0
1 -43.1954 39.4361 -1.23807 7.6542 4 3 1 0 0 0
1 -40.7866 39.4364 1.32828 1.26116 4 1 0 1 0.0999999 0
1 -40.9126 39.4801 -1.31122 1.32245 4 0 0.2 0 1 0
1 -41.8375 37.206 0.00900852 3.88158 4 1 0 1 0.0999999 0
1 -41.7019 39.4446 -3.8701 3.40788 4 1 0 1 0.0999999 0
1 -37.9873 39.4363 1.30399 2.91462 4 1 0 1 0.0999999 0
1 -38.6294 39.4129 -1.26751 0.437235 4 0 0.2 0 1 0
1 -39.1444 37.1681 0.0286497 7.10619 4 1 0 1 0.0999999 0
1 -40.6423 37.2034 -2.59871 2.7187 4 1 0 1 0.0999999 0
1 -38.9141 39.4443 -3.89085 1.72793 4 1 0 1 0.0999999 0
1 -36.353 39.499 -1.36704 5.38794 4 1 0 1 0.0999999 0
1 -36.3114 37.2599 0.0236826 3.39128 4 1 0 1 0.0999999 0
1 -37.793 37.2638 -2.60671 6.49516 4 1 0 1 0.0999999 0
1 -35.0754 37.2205 -2.59206 9.06061 4 1 0 1 0.0999999 0
1 46.5494 39.4321 1.26989 7.13828 4 1 0 1 0.0999999 0
1 44.7954 39.4314 -1.27763 7.02293 4 1 0 1 0.0999999 0
1 45.5933 37.209 0.0630428 0.161969 4 1 0 1 0.0999999 0
1 45.6807 39.4341 -3.89593 0.084527 4 1 0 1 0.0999999 0
1 49.294 39.43 1.34617 0.0835942 4 1 0 1 0.0999999 0
1 50.1798 39.4316 -1.27263 7.02193 4 1 0 1 0.0999999 0
1 48.37 37.207 -0.0138802 13.9414 4 2 1 0 0 0
1 46.6237 37.2094 -2.53622 13.9472 4 2 1 0 0 0
1 48.4264 39.4331 -3.81975 7.13923 4 1 0 1 0.0999999 0
1 49.4013 37.2079 -2.61297 0.164565 4 1 0 1 0.0999999 0
1 -41.7869 41.6758 -0.00306728 3.5091 4 1 0 1 0.0999999 0
1 -39.0248 41.6923 0.00763073 1.93119 4 1 0 1 0.0999999 0
1 -40.6743 41.7411 -2.62825 1.60058 4 1 0 1 0.0999999 0
1 -37.9053 41.666 -2.58601 2.98822 4 1 0 1 0.0999999 0
1 45.5932 41.7087 0.0404802 0.103617 4 1 0 1 0.0999999 0
1 48.351 41.6372 -0.00386984 6.9699 4 1 0 1 0.0999999 0
1 46.6043 41.6391 -2.54588 7.00762 4 1 0 1 0.0999999 0
1 49.3609 41.7092 -2.59119 0.102855 4 1 0 1 0.0999999 0
1 -84.488 48.3418 1.24584 7.18807 4 1 0 1 0.0999999 0
1 -86.2202 48.3376 -1.30612 7.01091 4 1 0 1 0.0999999 0
1 -85.4016 46.0689 0.0132541 0.0993515 4 1 0 1 0.0999999 0
1 -85.3128 48.3369 -3.92966 0.0822004 4 1 0 1 0.0999999 0
1 -81.741 48.3358 1.32299 0.0861031 4 1 0 1 0.0999999 0
1 -80.825 48.3398 -1.30717 7.0798 4 1 0 1 0.0999999 0
1 -82.6462 46.1382 -0.0322064 6.97424 4 1 0 1 0.0999999 0
1 -84.3874 46.1376 -2.57531 6.95662 4 1 0 1 0.0999999 0
1 -82.5618 48.3369 -3.85622 7.19013 4 1 0 1 0.0999999 0
1 -81.6303 46.0665 -2.62005 0.101492 4 1 0 1 0.0999999 0
1 71.4796 48.2998 -1.17259 4.58663 4 3 1 0 0 0
1 73.8036 48.4172 -1.30461 2.41577 4 0 0.2 0 1 0
1 72.8063 46.1269 0.0134947 4.00192 4 1 0 1 0.0999999 0
1 73.0144 48.3806 -3.84881 3.50897 4 1 0 1 0.0999999 0
1 76.4442 48.387 1.32041 1.94343 4 1 0 1 0.0999999 0
1 76.1136 48.4157 -1.29325 0.130924 4 0 0.2 0 1 0
1 75.5209 46.1582 -0.0061624 2.63347 4 1 0 1 0.0999999 0
1 73.951 46.1181 -2.58569 1.24117 4 1 0 1 0.0999999 0
1 75.7931 48.3777 -3.91098 1.92988 4 1 0 1 0.0999999 0
1 79.2268 48.3881 1.25887 3.56578 4 1 0 1 0.0999999 0
1 78.4264 48.4287 -1.27908 2.57979 4 0 0.2 0 1 0
1 78.3132 46.1267 -0.000241259 1.16292 4 1 0 1 0.0999999 0
1 76.7363 46.1519 -2.57805 2.69009 4 1 0 1 0.0999999 0
1 80.7479 48.2943 -1.40898 4.56219 4 3 1 0 0 0
1 79.447 46.1238 -2.59534 0.178242 4 1 0 1 0.0999999 0
1 -85.4283 50.6084 0.00810318 0.0930003 4 1 0 1 0.0999999 0
1 -82.6692 50.5419 -0.0369054 6.95886 4 1 0 1 0.0999999 0
1 -84.3925 50.5372 -2.5793 6.92565 4 1 0 1 0.0999999 0
1 -79.0766 52.7954 1.24322 7.22275 4 1 0 1 0.0999999 0
1 -80.7871 52.7852 -1.30753 7.02446 4 1 0 1 0.0999999 0
1 -79.9778 50.5205 0.00749949 0.0926841 4 1 0 1 0.0999999 0
1 -81.6324 50.6042 -2.62048 0.0823227 4 1 0 1 0.0999999 0
1 -79.8419 52.7909 -3.93473 0.0740942 4 1 0 1 0.0999999 0
1 -76.3265 52.7948 1.31043 0.0761222 4 1 0 1 0.0999999 0
1 -75.3912 52.7902 -1.30977 7.01862 4 1 0 1 0.0999999 0
1 -77.219 50.5925 -0.0365861 6.96634 4 1 0 1 0.0999999 0
1 -78.9412 50.5852 -2.57682 7.00666 4 1 0 1 0.0999999 0
1 -77.0973 52.7887 -3.86505 7.22543 4 1 0 1 0.0999999 0
1 -76.1832 50.5203 -2.62393 0.0981746 4 1 0 1 0.0999999 0
1 68.864 52.8057 -1.15984 5.80409 4 2 1 0 0 0
1 71.3208 52.8749 -1.17999 6.33461 4 0 0.2 0 1 0
1 70.4099 52.85 -3.77456 3.94726 4 1 0 1 0.0999999 0
1 73.7134 52.9071 -1.25718 1.49459 4 0 0.2 0 1 0
1 72.5983 50.614 0.0245558 8.88865 4 1 0 1 0.0999999 0
1 71.3333 50.5865 -2.51484 6.60531 4 2 1 0 0 0
1 73.1923 52.8553 -3.85475 2.52116 4 1 0 1 0.0999999 0
1 76.2092 52.8515 1.33546 1.23828 4 1 0 1 0.0999999 0
1 76.0999 52.8186 -1.29541 0.106017 4 1 0 1 0.0999999 0
1 75.265 50.6224 0.0124932 10.7744 4 1 0 1 0.0999999 0
1 74.2099 50.67 -2.60929 8.48546 4 1 0 1 0.0999999 0
1 75.9968 52.8495 -3.92492 1.22373 4 1 0 1 0.0999999 0
1 79.0132 52.8639 1.26155 2.57134 4 1 0 1 0.0999999 0
1 78.4862 52.9322 -1.3288 4.83369 4 0 0.2 0 1 0
1 78.0222 50.685 0.0218445 8.37351 4 1 0 1 0.0999999 0
1 76.9664 50.6135 -2.59293 10.9685 4 1 0 1 0.0999999 0
1 81.7848 52.8565 1.1826 3.84324 4 1 0 1 0.0999999 0
1 80.8992 52.8824 -1.39675 6.34855 4 0 0.2 0 1 0
1 80.8929 50.5855 -0.0728869 6.5878 4 2 1 0 0 0
1 79.6322 50.6276 -2.60819 8.93455 4 1 0 1 0.0999999 0
1 83.3683 52.807 -1.42457 5.73875 4 2 1 0 0 0
1 -87.3395 57.2333 1.25491 7.02815 4 1 0 1 0.0999999 0
1 -88.9751 57.2331 -1.30518 6.98185 4 1 0 1 0.0999999 0
1 -88.1916 54.9717 0.00775284 0.0952389 4 1 0 1 0.0999999 0
1 -87.9769 57.2442 -3.91501 0.0686569 4 1 0 1 0.0999999 0
1 -84.5877 57.243 1.29356 0.0776138 4 1 0 1 0.0999999 0
1 -83.59 57.2308 -1.31894 6.96638 4 1 0 1 0.0999999 0
1 -85.4369 55.0376 -0.0409831 7.04177 4 1 0 1 0.0999999 0
1 -87.1138 55.0412 -2.57774 6.97556 4 1 0 1 0.0999999 0
1 -85.2272 57.2605 -3.85189 7.06968 4 1 0 1 0.0999999 0
1 -84.3604 54.9687 -2.62708 0.105109 4 1 0 1 0.0999999 0
1 -80.0133 55.0543 0.00528055 0.0867153 4 1 0 1 0.0999999 0
1 -77.2547 54.991 -0.0422839 6.87075 4 1 0 1 0.0999999 0
1 -78.9376 54.9847 -2.58182 6.84569 4 1 0 1 0.0999999 0
1 -76.1821 55.0513 -2.6286 0.0845558 4 1 0 1 0.0999999 0
1 55.3044 57.2446 -1.22499 6.07795 4 1 0 1 0.0999999 0
1 57.9472 57.2619 -1.18633 6.06332 4 2 1 0 0 0
1 56.8036 57.2943 -3.74983 5.0109 4 1 0 1 0.0999999 0
1 60.536 57.324 -1.19956 6.24893 4 2 1 0 0 0
1 59.5405 57.3138 -3.72352 9.85422 4 1 0 1 0.0999999 0
1 63.1618 57.3595 -1.18356 6.64647 4 2 1 0 0 0
1 62.3129 57.3016 -3.77144 9.12603 4 1 0 1 0.0999999 0
1 65.7814 57.3735 -1.19345 7.54901 4 1 0 1 0.0999999 0
1 64.3758 55.1075 -0.0216625 5.42487 4 1 0 1 0.0999999 0
1 65.0563 57.2985 -3.75965 8.40691 4 1 0 1 0.0999999 0
1 68.4081 57.3357 -1.2025 8.51451 4 1 0 1 0.0999999 0
1 67.0582 55.0949 0.012482 4.51711 4 1 0 1 0.0999999 0
1 65.9644 55.0895 -2.53552 6.217 4 2 1 0 0 0
1 67.8277 57.2812 -3.79332 7.88747 4 0 0.2 0 1 0
1 71.01 57.3058 -1.19058 3.79781 4 1 0 1 0.0999999 0
1 69.7538 55.1001 0.0149056 8.49747 4 1 0 1 0.0999999 0
1 68.8518 55.0768 -2.52537 6.82442 4 3 1 0 0 0
1 70.6382 57.303 -3.81011 7.41368 4 0 0.2 0 1 0
1 73.6176 57.2876 -1.18369 3.9961 4 1 0 1 0.0999999 0
1 72.4224 55.0883 0.0474465 7.89755 4 1 0 1 0.0999999 0
1 71.675 55.109 -2.55159 8.06778 4 1 0 1 0.0999999 0
1 73.4858 57.3033 -3.82339 1.2826 4 1 0 1 0.0999999 0
1 76.1101 57.3486 -1.2942 10.7638 4 2 1 0 0 0
1 75.0881 55.0722 0.0132444 10.0477 4 1 0 1 0.0999999 0
1 74.432 55.0929 -2.58817 9.11029 4 1 0 1 0.0999999 0
1 78.6565 57.3164 1.27604 1.01418 4 1 0 1 0.0999999 0
1 78.6232 57.3152 -1.37304 4.35298 4 2 1 0 0 0
1 77.7607 55.1184 0.00123094 9.24722 4 1 0 1 0.0999999 0
1 77.11 55.0972 -2.60261 10.0053 4 1 0 1 0.0999999 0
1 81.492 57.3082 1.22827 7.15527 4 0 0.2 0 1 0
1 81.2036 57.2946 -1.4046 3.94017 4 1 0 1 0.0999999 0
1 80.4997 55.119 -0.0323202 8.20556 4 0 0.2 0 1 0
1 79.7838 55.1012 -2.62398 7.5597 4 1 0 1 0.0999999 0
1 84.314 57.289 1.20099 7.61989 4 0 0.2 0 1 0
1 83.7964 57.3249 -1.40481 3.7604 4 1 0 1 0.0999999 0
1 83.3058 55.0825 -0.0639218 7.02935 4 0 0.2 0 1 0
1 82.4553 55.0854 -2.62241 8.22736 4 1 0 1 0.0999999 0
1 87.1065 57.2923 1.16853 8.05531 4 1 0 1 0.0999999 0
1 86.4193 57.3765 -1.39989 7.97462 4 1 0 1 0.0999999 0
1 86.1883 55.0889 -0.0583476 6.2878 4 2 1 0 0 0
1 85.1351 55.083 -2.60742 9.38994 4 1 0 1 0.0999999 0
1 89.8501 57.3127 1.15645 8.72759 4 1 0 1 0.0999999 0
1 89.0173 57.3774 -1.40174 6.93513 4 2 1 0 0 0
1 89.0868 55.067 -0.0748761 6.44521 4 2 1 0 0 0
1 87.821 55.0894 -2.58708 5.26984 4 1 0 1 0.0999999 0
1 92.5951 57.3149 1.1574 9.40418 4 1 0 1 0.0999999 0
1 91.664 57.3359 -1.39977 6.38612 4 2 1 0 0 0
1 95.3434 57.3109 1.15193 4.74739 4 0 0.2 0 1 0
1 94.2849 57.2826 -1.40267 6.07939 4 2 1 0 0 0
1 98.0901 57.3043 1.15788 5.15004 4 0 0.2 0 1 0
1 96.9218 57.2466 -1.3881 6.02568 4 2 1 0 0 0
1 99.5728 57.2275 -1.36933 6.07406 4 1 0 1 0.0999999 0
1 -134.012 61.7263 1.20928 7.68594 4 2 1 0 0 0
1 -134.943 61.7506 -1.31081 7.50556 4 2 1 0 0 0
1 -131.275 61.7273 1.20292 7.77327 4 2 1 0 0 0
1 -132.21 61.7531 -1.3163 7.48335 4 0 0.2 0 1 0
1 -128.536 61.729 1.19422 7.94062 4 2 1 0 0 0
1 -129.479 61.7549 -1.32361 7.42512 4 0 0.2 0 1 0
1 -125.798 61.7275 1.18819 8.19568 4 2 1 0 0 0
1 -126.749 61.7557 -1.3329 7.29472 4 0 0.2 0 1 0
1 -123.062 61.727 1.18569 8.56272 4 2 1 0 0 0
1 -124.033 61.7496 -1.34493 7.06583 4 0 0.2 0 1 0
1 -120.328 61.7289 1.18315 9.07427 4 2 1 0 0 0
1 -121.333 61.7317 -1.35669 6.78154 4 2 1 0 0 0
1 -117.593 61.7369 1.17576 9.69196 4 2 1 0 0 0
1 -118.647 61.7059 -1.36717 6.48964 4 2 1 0 0 0
1 -114.848 61.7404 1.16608 10.3487 4 0 0.2 0 1 0
1 -115.97 61.6819 -1.37313 6.31729 4 2 1 0 0 0
1 -112.105 61.7386 1.16401 5.37307 4 0 0.2 0 1 0
1 -113.298 61.6629 -1.36939 6.26249 4 2 1 0 0 0
1 -110.628 61.6514 -1.35922 6.29794 4 1 0 1 0.0999999 0
1 -88.258 59.4793 0.0112031 0.131482 4 4 1 0 0 0
1 -84.8388 61.7222 1.20861 5.58035 4 0 0.2 0 1 0
1 -86.1748 61.6657 -1.29698 6.491 4 1 0 1 0.0999999 0
1 -85.5678 59.3712 -0.0343935 6.2852 4 2 1 0 0 0
1 -87.0468 59.4433 -2.54803 6.45754 4 1 0 1 0.0999999 0
1 -85.0759 61.7224 -3.88232 0.0596143 4 4 1 0 0 0
1 -82.0912 61.7207 1.22834 0.0401893 4 4 1 0 0 0
1 -80.9304 61.6726 -1.34244 6.72717 4 2 1 0 0 0
1 -82.8119 59.4982 -0.0787124 6.39438 4 1 0 1 0.0999999 0
1 -84.2721 59.548 -2.57032 6.27941 4 2 1 0 0 0
1 -82.3202 61.7336 -3.85389 5.81268 4 1 0 1 0.0999999 0
1 -81.5902 59.4214 -2.63698 0.190465 4 0 0.2 0 1 0
1 30.774 61.6573 -1.24386 6.23471 4 1 0 1 0.0999999 0
1 33.4021 61.6894 -1.20941 6.1608 4 2 1 0 0 0
1 32.2752 61.7338 -3.76752 5.04654 4 0 0.2 0 1 0
1 36.0548 61.7229 -1.21804 6.31165 4 2 1 0 0 0
1 35.0283 61.7439 -3.76528 10.0859 4 0 0.2 0 1 0
1 38.69 61.7661 -1.22868 6.643 4 2 1 0 0 0
1 37.7746 61.7373 -3.77671 9.18729 4 1 0 1 0.0999999 0
1 41.3409 61.7936 -1.23408 7.19561 4 0 0.2 0 1 0
1 40.5108 61.7296 -3.78246 8.39593 4 0 0.2 0 1 0
1 43.9975 61.8068 -1.23029 7.72502 4 0 0.2 0 1 0
1 43.2525 61.7282 -3.79084 7.76939 4 0 0.2 0 1 0
1 46.6706 61.8019 -1.21887 8.24243 4 1 0 1 0.0999999 0
1 45.2782 59.5547 -0.0326258 5.52828 4 0 0.2 0 1 0
1 44.0014 59.4939 -2.53722 6.41015 4 0 0.2 0 1 0
1 45.9935 61.7236 -3.79668 7.33731 4 1 0 1 0.0999999 0
1 49.3247 61.7816 -1.21067 8.88141 4 1 0 1 0.0999999 0
1 47.9653 59.5454 -0.0228542 4.89855 4 0 0.2 0 1 0
1 46.8166 59.5009 -2.55045 6.11483 4 2 1 0 0 0
1 48.7547 61.7165 -3.80352 6.90831 4 0 0.2 0 1 0
1 51.9753 61.7598 -1.20025 2.93682 4 4 1 0 0 0
1 50.6504 59.5363 -0.0157269 9.37906 4 0 0.2 0 1 0
1 49.6509 59.5226 -2.5552 6.0975 4 2 1 0 0 0
1 51.5459 61.7157 -3.81661 6.58489 4 2 1 0 0 0
1 54.6155 61.7311 -1.19813 3.04915 4 4 1 0 0 0
1 53.3364 59.5332 -0.00342675 8.62929 4 1 0 1 0.0999999 0
1 52.4815 59.5332 -2.55223 6.45821 4 0 0.2 0 1 0
1 54.3647 61.7187 -3.83693 6.40473 4 0 0.2 0 1 0
1 57.2765 61.7012 -1.18916 3.30299 4 4 1 0 0 0
1 56.0228 59.5259 0.0234868 8.00297 4 1 0 1 0.0999999 0
1 55.3034 59.5412 -2.55469 7.1461 4 1 0 1 0.0999999 0
1 57.2008 61.7166 -3.84082 6.53299 4 1 0 1 0.0999999 0
1 59.9196 61.6993 -1.18753 9.6598 4 0 0.2 0 1 0
1 58.7169 59.5223 0.0490632 7.34276 4 1 0 1 0.0999999 0
1 58.1201 59.5467 -2.54262 7.94636 4 0 0.2 0 1 0
1 62.5774 61.6917 -1.18734 10.0585 4 0 0.2 0 1 0
1 61.3888 59.5536 0.0659469 6.77859 4 0 0.2 0 1 0
1 60.9439 59.5656 -2.55443 9.11926 4 3 1 0 0 0
1 65.2473 61.6889 -1.21395 10.4461 4 0 0.2 0 1 0
1 64.0471 59.5633 0.0946656 6.48015 4 0 0.2 0 1 0
1 63.7267 59.5536 -2.54753 3.32812 4 0 0.2 0 1 0
1 67.9358 61.6633 -1.24314 10.8668 4 0 0.2 0 1 0
1 66.6887 59.5347 0.0953167 6.37145 4 1 0 1 0.0999999 0
1 66.5242 59.5277 -2.56814 3.49587 4 1 0 1 0.0999999 0
1 70.6267 61.6674 -1.25116 5.70259 4 0 0.2 0 1 0
1 69.3415 59.5418 0.0954157 6.38038 4 1 0 1 0.0999999 0
1 69.2829 59.4938 -2.55954 9.61643 4 0 0.2 0 1 0
1 71.9971 59.5214 0.104283 6.54845 4 1 0 1 0.0999999 0
1 72.0531 59.4893 -2.56023 4.09932 4 0 0.2 0 1 0
1 80.0781 59.474 -0.0136441 4.22814 4 1 0 1 0.0999999 0
1 84.182 61.6745 -1.34946 5.69064 4 0 0.2 0 1 0
1 82.8167 59.4925 -0.0335491 9.74532 4 0 0.2 0 1 0
1 82.8238 59.5307 -2.6943 0.908327 4 1 0 1 0.0999999 0
1 86.874 61.6814 -1.36812 10.7572 4 0 0.2 0 1 0
1 85.5811 59.5205 -0.0354656 3.48066 4 0 0.2 0 1 0
1 85.4888 59.5457 -2.699 6.41422 4 1 0 1 0.0999999 0
1 89.5541 61.6941 -1.39162 10.415 4 0 0.2 0 1 0
1 88.3425 59.5565 -0.0416733 3.25416 4 0 0.2 0 1 0
1 88.155 59.5413 -2.69456 6.48611 4 1 0 1 0.0999999 0
1 92.2261 61.7 -1.40784 10.1054 4 0 0.2 0 1 0
1 91.1359 59.5605 -0.0430099 3.23691 4 0 0.2 0 1 0
1 90.8105 59.5405 -2.68688 6.70367 4 0 0.2 0 1 0
1 94.8912 61.6989 -1.41772 9.56718 4 0 0.2 0 1 0
1 93.9451 59.5417 -0.0450323 3.31884 4 3 1 0 0 0
1 93.4736 59.5228 -2.66719 7.06774 4 0 0.2 0 1 0
1 97.6633 61.725 1.23972 6.33623 4 0 0.2 0 1 0
1 97.549 61.7077 -1.41198 9.2224 4 0 0.2 0 1 0
1 96.7595 59.5438 -0.0515978 7.78153 4 0 0.2 0 1 0
1 96.1382 59.5116 -2.6403 7.54288 4 1 0 1 0.0999999 0
1 100.5 61.7148 1.23379 6.25635 4 2 1 0 0 0
1 100.211 61.7339 -1.40522 3.09468 4 4 1 0 0 0
1 99.5733 59.5351 -0.0434818 7.10461 4 0 0.2 0 1 0
1 98.8121 59.5138 -2.60686 8.12531 4 0 0.2 0 1 0
1 103.314 61.7109 1.21965 6.36918 4 2 1 0 0 0
1 102.865 61.756 -1.39687 2.97728 4 1 0 1 0.0999999 0
1 102.402 59.5247 -0.0405711 6.48449 4 2 1 0 0 0
1 101.498 59.5221 -2.58588 8.80607 4 1 0 1 0.0999999 0
1 106.1 61.7148 1.20953 6.55868 4 0 0.2 0 1 0
1 105.523 61.7827 -1.38863 8.9915 4 1 0 1 0.0999999 0
1 105.243 59.5098 -0.0386256 6.16709 4 2 1 0 0 0
1 104.203 59.5321 -2.57826 9.58711 4 0 0.2 0 1 0
1 108.857 61.7231 1.20221 6.83696 4 0 0.2 0 1 0
1 108.175 61.7982 -1.37317 8.71106 4 1 0 1 0.0999999 0
1 108.085 59.4974 -0.0515437 6.17896 4 2 1 0 0 0
1 106.91 59.5414 -2.57315 5.07368 4 0 0.2 0 1 0
1 111.593 61.7264 1.20543 7.09134 4 0 0.2 0 1 0
1 110.832 61.7951 -1.35267 8.17196 4 1 0 1 0.0999999 0
1 114.325 61.728 1.21305 7.31551 4 2 1 0 0 0
1 113.496 61.786 -1.32926 7.80353 4 2 1 0 0 0
1 117.05 61.7289 1.21519 7.46277 4 2 1 0 0 0
1 116.174 61.773 -1.31591 7.62098 4 1 0 1 0.0999999 0
1 119.773 61.7281 1.21779 7.52064 4 2 1 0 0 0
1 118.875 61.7627 -1.3096 7.55889 4 2 1 0 0 0
1 122.497 61.7285 1.21948 7.54981 4 2 1 0 0 0
1 121.587 61.7559 -1.30546 7.5384 4 2 1 0 0 0
1 125.222 61.7287 1.22026 7.56627 4 2 1 0 0 0
1 124.305 61.7512 -1.30334 7.52332 4 2 1 0 0 0
1 127.948 61.7284 1.22016 7.57978 4 2 1 0 0 0
1 127.027 61.7484 -1.30235 7.51637 4 2 1 0 0 0
1 130.677 61.7277 1.21889 7.59438 4 2 1 0 0 0
1 129.753 61.7473 -1.30269 7.51489 4 2 1 0 0 0
1 133.408 61.7267 1.21657 7.61194 4 2 1 0 0 0
1 132.482 61.7474 -1.30429 7.51483 4 2 1 0 0 0
1 136.14 61.7262 1.21349 7.63923 4 2 1 0 0 0
1 135.212 61.7486 -1.30697 7.51313 4 2 1 0 0 0
1 -135.839 63.9186 -0.0219507 7.59668 4 2 1 0 0 0
1 -133.096 63.9194 -0.0217371 7.65281 4 2 1 0 0 0
1 -130.342 63.9218 -0.0214181 7.74899 4 2 1 0 0 0
1 -127.569 63.9289 -0.0215394 7.94673 4 2 1 0 0 0
1 -123.303 66.0854 -1.35271 5.44778 4 0 0.2 0 1 0
1 -124.774 63.9409 -0.0257436 8.30322 4 0 0.2 0 1 0
1 -124.754 63.9481 -2.686 6.33518 4 0 0.2 0 1 0
1 -120.566 66.0811 -1.35169 10.6045 4 0 0.2 0 1 0
1 -121.966 63.9447 -0.0259627 8.84221 4 1 0 1 0.0999999 0
1 -122.084 63.935 -2.68359 6.26593 4 2 1 0 0 0
1 -117.82 66.0898 -1.34865 9.94807 4 0 0.2 0 1 0
1 -119.139 63.9461 -0.0258648 2.77536 4 3 1 0 0 0
1 -119.414 63.921 -2.67183 6.28822 4 2 1 0 0 0
1 -115.081 66.1014 -1.3503 9.30675 4 2 1 0 0 0
1 -116.307 63.9508 -0.0293748 2.72883 4 3 1 0 0 0
1 -116.739 63.912 -2.6521 6.40757 4 2 1 0 0 0
1 -112.347 66.1073 -1.35003 8.74555 4 2 1 0 0 0
1 -113.477 63.9529 -0.029506 2.89928 4 1 0 1 0.0999999 0
1 -114.057 63.9074 -2.62372 6.65966 4 2 1 0 0 0
1 -109.611 66.1096 -1.3474 8.3311 4 2 1 0 0 0
1 -110.663 63.9543 -0.0306862 8.50233 4 0 0.2 0 1 0
1 -111.363 63.9071 -2.59862 6.94923 4 0 0.2 0 1 0
1 -106.874 66.1135 -1.34314 8.04285 4 2 1 0 0 0
1 -107.864 63.9612 -0.03565 8.07707 4 2 1 0 0 0
1 -108.652 63.9126 -2.58259 7.1973 4 0 0.2 0 1 0
1 -104.135 66.1207 -1.33922 7.83986 4 2 1 0 0 0
1 -105.082 63.9689 -0.0435739 7.82055 4 2 1 0 0 0
1 -105.926 63.9203 -2.57646 7.36974 4 0 0.2 0 1 0
1 -101.398 66.128 -1.33669 7.72926 4 2 1 0 0 0
1 -102.321 63.9709 -0.0463156 7.69431 4 2 1 0 0 0
1 -103.195 63.9275 -2.57326 7.45573 4 0 0.2 0 1 0
1 -98.6617 66.133 -1.3338 7.67574 4 2 1 0 0 0
1 -99.5739 63.9723 -0.0467987 7.62661 4 2 1 0 0 0
1 -100.462 63.9342 -2.57187 7.49037 4 0 0.2 0 1 0
1 -95.9278 66.1364 -1.33049 7.65245 4 2 1 0 0 0
1 -96.8358 63.9735 -0.0459975 7.58619 4 2 1 0 0 0
1 -97.7276 63.9395 -2.57105 7.49999 4 2 1 0 0 0
1 -93.1954 66.1387 -1.32718 7.65226 4 2 1 0 0 0
1 -94.1033 63.9754 -0.0443501 7.55802 4 2 1 0 0 0
1 -94.9944 63.9432 -2.57013 7.49638 4 2 1 0 0 0
1 -90.4632 66.1405 -1.32406 7.68631 4 2 1 0 0 0
1 -91.3766 63.9786 -0.0416327 7.56227 4 2 1 0 0 0
1 -92.2612 63.9452 -2.56894 7.4767 4 2 1 0 0 0
1 -87.7247 66.1391 -1.31818 7.75182 4 2 1 0 0 0
1 -88.6563 63.9835 -0.0369827 7.60418 4 2 1 0 0 0
1 -89.526 63.9484 -2.56838 7.42434 4 2 1 0 0 0
1 -84.9752 66.1175 -1.30636 7.90876 4 2 1 0 0 0
1 -85.9562 63.992 -0.01937 7.70857 4 2 1 0 0 0
1 -86.7872 63.9344 -2.56006 7.24225 4 2 1 0 0 0
1 -82.2547 66.1165 -1.33173 7.89032 4 2 1 0 0 0
1 -83.1504 63.8783 -0.0735629 8.21767 4 2 1 0 0 0
1 -84.0484 63.8811 -2.56898 8.26666 4 2 1 0 0 0
1 -79.5005 66.1409 -1.3161 7.67454 4 2 1 0 0 0
1 -80.4091 63.9491 -0.0693472 7.28171 4 2 1 0 0 0
1 -81.2455 63.9972 -2.61239 7.70041 4 2 1 0 0 0
1 -76.7635 66.1436 -1.31117 7.59373 4 2 1 0 0 0
1 -77.6685 63.957 -0.0607715 7.48039 4 2 1 0 0 0
1 -78.5586 63.976 -2.58888 7.51162 4 2 1 0 0 0
1 -74.0348 66.1438 -1.30955 7.54973 4 2 1 0 0 0
1 -74.9356 63.9579 -0.0578365 7.5197 4 2 1 0 0 0
1 -75.8405 63.9713 -2.58317 7.50753 4 2 1 0 0 0
1 -71.3075 66.1437 -1.30928 7.53359 4 2 1 0 0 0
1 -72.2063 63.9586 -0.0562191 7.53651 4 2 1 0 0 0
1 -73.1186 63.9679 -2.58028 7.51288 4 2 1 0 0 0
1 -68.5806 66.1435 -1.3091 7.52904 4 2 1 0 0 0
1 -69.4785 63.9594 -0.0548974 7.54003 4 2 1 0 0 0
1 -70.3934 63.9662 -2.57872 7.51323 4 2 1 0 0 0
1 -65.8536 66.1435 -1.30923 7.52813 4 2 1 0 0 0
1 -66.7514 63.9602 -0.053637 7.54017 4 2 1 0 0 0
1 -67.6671 63.9649 -2.57745 7.51211 4 2 1 0 0 0
1 -63.1266 66.1436 -1.30936 7.52821 4 2 1 0 0 0
1 -64.0242 63.9611 -0.0525135 7.5392 4 2 1 0 0 0
1 -64.9403 63.9641 -2.57636 7.51079 4 2 1 0 0 0
1 -60.3993 66.144 -1.30953 7.52944 4 2 1 0 0 0
1 -61.2969 63.9621 -0.0516812 7.53788 4 2 1 0 0 0
1 -62.2131 63.9637 -2.57548 7.51071 4 2 1 0 0 0
1 -57.6716 66.1443 -1.30961 7.53165 4 2 1 0 0 0
1 -58.5694 63.963 -0.0510071 7.53808 4 2 1 0 0 0
1 -59.4854 63.9637 -2.57473 7.51166 4 2 1 0 0 0
1 -54.9436 66.1443 -1.30938 7.53349 4 2 1 0 0 0
1 -55.8415 63.9638 -0.0502588 7.53933 4 2 1 0 0 0
1 -56.7575 63.9636 -2.57409 7.51268 4 2 1 0 0 0
1 -52.2154 66.1441 -1.30937 7.5339 4 2 1 0 0 0
1 -53.1133 63.9638 -0.049609 7.53996 4 2 1 0 0 0
1 -54.0292 63.963 -2.57326 7.51327 4 2 1 0 0 0
1 -49.4872 66.1439 -1.3092 7.53415 4 2 1 0 0 0
1 -50.3848 63.9639 -0.0488654 7.53896 4 2 1 0 0 0
1 -51.3008 63.9622 -2.57246 7.5132 4 2 1 0 0 0
1 -46.7588 66.1439 -1.30881 7.53554 4 2 1 0 0 0
1 -47.6565 63.9642 -0.0481533 7.53732 4 2 1 0 0 0
1 -48.5721 63.9617 -2.57173 7.51225 4 2 1 0 0 0
1 -44.0303 66.144 -1.30836 7.53763 4 2 1 0 0 0
1 -44.9285 63.9646 -0.0475237 7.53711 4 2 1 0 0 0
1 -45.8434 63.9615 -2.57111 7.50896 4 2 1 0 0 0
1 -41.3019 66.1439 -1.30796 7.53847 4 2 1 0 0 0
1 -42.2005 63.9649 -0.046896 7.53836 4 2 1 0 0 0
1 -43.115 63.9614 -2.57055 7.50502 4 2 1 0 0 0
1 -38.5736 66.1438 -1.30765 7.53779 4 2 1 0 0 0
1 -39.4722 63.9649 -0.0462553 7.53972 4 2 1 0 0 0
1 -40.3868 63.9609 -2.56991 7.50308 4 2 1 0 0 0
1 -35.8454 66.1439 -1.30725 7.53688 4 2 1 0 0 0
1 -36.7435 63.965 -0.0455838 7.54 4 2 1 0 0 0
1 -37.6585 63.9606 -2.56916 7.5036 4 2 1 0 0 0
1 -33.1169 66.1443 -1.30676 7.53688 4 2 1 0 0 0
1 -34.0146 63.9655 -0.0449612 7.53976 4 2 1 0 0 0
1 -34.9299 63.9608 -2.56845 7.50579 4 2 1 0 0 0
1 -30.3881 66.145 -1.30627 7.53733 4 2 1 0 0 0
1 -31.2856 63.9661 -0.0444904 7.53939 4 2 1 0 0 0
1 -32.2009 63.9616 -2.56793 7.50774 4 2 1 0 0 0
1 -27.659 66.1455 -1.30579 7.53792 4 2 1 0 0 0
1 -28.5565 63.9666 -0.0441213 7.53938 4 2 1 0 0 0
1 -29.4717 63.9623 -2.5676 7.50853 4 2 1 0 0 0
1 -24.9298 66.1457 -1.30521 7.53771 4 2 1 0 0 0
1 -25.8273 63.9668 -0.0437038 7.53966 4 2 1 0 0 0
1 -26.7425 63.9627 -2.56727 7.50881 4 2 1 0 0 0
1 -22.2007 66.1459 -1.30437 7.53719 4 2 1 0 0 0
1 -23.0983 63.967 -0.0430715 7.53979 4 2 1 0 0 0
1 -24.0133 63.9628 -2.56672 7.5081 4 2 1 0 0 0
1 -19.4716 66.1464 -1.30335 7.53711 4 2 1 0 0 0
1 -20.3693 63.9674 -0.0423343 7.54026 4 2 1 0 0 0
1 -21.2842 63.9632 -2.56599 7.5067 4 2 1 0 0 0
1 -16.7422 66.1469 -1.30228 7.53726 4 2 1 0 0 0
1 -17.6403 63.9679 -0.0417425 7.54109 4 2 1 0 0 0
1 -18.5551 63.9639 -2.56535 7.50547 4 2 1 0 0 0
1 -14.0128 66.147 -1.30118 7.53666 4 2 1 0 0 0
1 -14.911 63.9679 -0.0413648 7.54187 4 2 1 0 0 0
1 -15.8259 63.9645 -2.56491 7.50438 4 2 1 0 0 0
1 -11.2833 66.1469 -1.3002 7.53502 4 2 1 0 0 0
1 -12.1816 63.9672 -0.0410903 7.5426 4 2 1 0 0 0
1 -13.0966 63.9647 -2.56443 7.50413 4 2 1 0 0 0
1 -8.55367 66.1468 -1.29882 7.5332 4 2 1 0 0 0
1 -9.45188 63.9667 -0.0405393 7.54384 4 2 1 0 0 0
1 -10.3674 63.9647 -2.56385 7.50512 4 2 1 0 0 0
1 -5.8237 66.1469 -1.29728 7.53238 4 2 1 0 0 0
1 -6.72214 63.9664 -0.0399283 7.54523 4 2 1 0 0 0
1 -7.63793 63.965 -2.56308 7.50569 4 2 1 0 0 0
1 -3.09343 66.147 -1.29577 7.53145 4 2 1 0 0 0
1 -3.99207 63.9658 -0.0395952 7.54744 4 2 1 0 0 0
1 -4.90821 63.9656 -2.56242 7.50607 4 2 1 0 0 0
1 -0.362973 66.1469 -1.29433 7.52908 4 2 1 0 0 0
1 -1.26147 63.9648 -0.0395417 7.55162 4 2 1 0 0 0
1 -2.1783 63.9662 -2.56201 7.50871 4 2 1 0 0 0
1 2.36754 66.1466 -1.29286 7.52682 4 2 1 0 0 0
1 1.46899 63.9637 -0.0394678 7.55684 4 2 1 0 0 0
1 0.551737 63.9665 -2.56181 7.51122 4 2 1 0 0 0
1 5.09808 66.1468 -1.29113 7.52873 4 2 1 0 0 0
1 4.19859 63.9636 -0.0391801 7.55979 4 2 1 0 0 0
1 3.28184 63.9667 -2.56165 7.50883 4 2 1 0 0 0
1 7.82949 66.1476 -1.28839 7.53274 4 2 1 0 0 0
1 6.92859 63.9642 -0.0380652 7.56161 4 2 1 0 0 0
1 6.01241 63.9674 -2.56054 7.50731 4 2 1 0 0 0
1 10.5613 66.1475 -1.28452 7.53502 4 2 1 0 0 0
1 9.65953 63.9637 -0.0358656 7.56683 4 2 1 0 0 0
1 8.74322 63.9682 -2.55848 7.50892 4 2 1 0 0 0
1 13.2919 66.1461 -1.28086 7.54087 4 2 1 0 0 0
1 12.3886 63.9619 -0.0343401 7.5633 4 2 1 0 0 0
1 11.4734 63.9682 -2.5573 7.49734 4 2 1 0 0 0
1 16.0212 66.146 -1.27828 7.53549 4 2 1 0 0 0
1 15.1209 63.9581 -0.0350801 7.54945 4 2 1 0 0 0
1 14.2052 63.9689 -2.55599 7.49961 4 2 1 0 0 0
1 18.7508 66.1442 -1.27835 7.55962 4 2 1 0 0 0
1 17.8526 63.9524 -0.0361629 7.51481 4 2 1 0 0 0
1 16.9376 63.9696 -2.55548 7.52952 4 2 1 0 0 0
1 21.4777 66.1421 -1.27469 7.59053 4 2 1 0 0 0
1 20.583 63.9488 -0.0346215 7.46842 4 2 1 0 0 0
1 19.6749 63.9745 -2.55796 7.58787 4 2 1 0 0 0
1 24.2077 66.1364 -1.27209 7.68723 4 2 1 0 0 0
1 23.3132 63.9379 -0.036148 7.43839 4 2 1 0 0 0
1 22.4163 63.9755 -2.55687 7.70059 4 2 1 0 0 0
1 26.9375 66.1275 -1.26854 7.93165 4 2 1 0 0 0
1 26.0297 63.9331 -0.0329102 7.34146 4 0 0.2 0 1 0
1 25.1701 63.9741 -2.5638 7.78246 4 2 1 0 0 0
1 29.6637 66.1256 -1.26383 8.32862 4 2 1 0 0 0
1 28.7346 63.9336 -0.020955 7.11728 4 0 0.2 0 1 0
1 27.9488 63.9676 -2.56901 7.92384 4 0 0.2 0 1 0
1 32.3924 66.1195 -1.25765 8.91362 4 2 1 0 0 0
1 31.4408 63.9322 0.00316857 6.80877 4 2 1 0 0 0
1 30.7605 63.96 -2.57381 8.4199 4 1 0 1 0.0999999 0
1 35.1221 66.1113 -1.25182 9.71644 4 2 1 0 0 0
1 34.1046 63.9331 0.0329544 6.49297 4 2 1 0 0 0
1 33.6058 63.9558 -2.57815 9.0929 4 0 0.2 0 1 0
1 37.8673 66.1039 -1.24242 10.3557 4 0 0.2 0 1 0
1 36.7804 63.9469 0.0698431 6.32525 4 2 1 0 0 0
1 36.4535 63.9694 -2.57347 2.76316 4 3 1 0 0 0
1 40.6084 66.1149 -1.23712 5.32721 4 0 0.2 0 1 0
1 39.4192 63.9689 0.0894886 6.35967 4 2 1 0 0 0
1 39.2877 63.9753 -2.56598 9.27997 4 1 0 1 0.0999999 0
1 42.0656 63.987 0.102404 6.48126 4 1 0 1 0.0999999 0
1 42.1056 63.9702 -2.56264 8.86444 4 0 0.2 0 1 0
1 44.8961 63.9533 -2.55369 8.71032 4 0 0.2 0 1 0
1 47.6799 63.9274 -2.53729 8.74275 4 2 1 0 0 0
1 50.4417 63.9107 -2.52977 9.15214 4 2 1 0 0 0
1 53.1892 63.8951 -2.52473 9.81604 4 2 1 0 0 0
1 55.9115 63.875 -2.5287 10.6854 4 0 0.2 0 1 0
1 96.1502 63.8714 -0.0670969 5.74974 4 0 0.2 0 1 0
1 98.8665 63.8797 -0.07199 10.4989 4 0 0.2 0 1 0
1 101.587 63.8905 -0.0715056 9.70337 4 0 0.2 0 1 0
1 104.311 63.9024 -0.0675187 9.03965 4 2 1 0 0 0
1 107.041 63.9113 -0.0590427 8.48842 4 2 1 0 0 0
1 109.781 63.9224 -0.0465754 8.08485 4 2 1 0 0 0
1 112.515 63.9291 -0.0325495 7.83559 4 2 1 0 0 0
1 115.239 63.9313 -0.0230695 7.65271 4 2 1 0 0 0
1 117.957 63.9276 -0.0200416 7.57656 4 2 1 0 0 0
1 120.676 63.9246 -0.0193941 7.54105 4 2 1 0 0 0
1 123.398 63.9229 -0.0199728 7.52469 4 2 1 0 0 0
1 126.122 63.9211 -0.0203824 7.52549 4 2 1 0 0 0
1 128.849 63.9198 -0.0206167 7.53319 4 2 1 0 0 0
1 131.579 63.919 -0.0210614 7.54508 4 2 1 0 0 0
1 134.311 63.9186 -0.0217206 7.56406 4 2 1 0 0 0
