 TITLE = "Mesh" 
 VARIABLES = X Y Z 
 ORIENTATION =  1 1 1
 ZONE T = "ZONE", N =      325, E =      192, F = FEPOINT, ET =           BRICK
    -0.70711E+03   -0.70711E+03   -0.30000E+04
    -0.44721E+03   -0.89443E+03   -0.30000E+04
     0.00000E+03   -0.10000E+04   -0.30000E+04
     0.44721E+03   -0.89443E+03   -0.30000E+04
     0.70711E+03   -0.70711E+03   -0.30000E+04
    -0.89443E+03   -0.44721E+03   -0.30000E+04
    -0.35355E+03   -0.35355E+03   -0.30000E+04
     0.00000E+03   -0.50000E+03   -0.30000E+04
     0.35355E+03   -0.35355E+03   -0.30000E+04
     0.89443E+03   -0.44721E+03   -0.30000E+04
    -0.10000E+04    0.00000E+03   -0.30000E+04
    -0.50000E+03    0.00000E+03   -0.30000E+04
     0.00000E+03    0.00000E+03   -0.30000E+04
     0.50000E+03    0.00000E+03   -0.30000E+04
     0.10000E+04    0.00000E+03   -0.30000E+04
    -0.89443E+03    0.44721E+03   -0.30000E+04
    -0.35355E+03    0.35355E+03   -0.30000E+04
     0.00000E+03    0.50000E+03   -0.30000E+04
     0.35355E+03    0.35355E+03   -0.30000E+04
     0.89443E+03    0.44721E+03   -0.30000E+04
    -0.70711E+03    0.70711E+03   -0.30000E+04
    -0.44721E+03    0.89443E+03   -0.30000E+04
     0.00000E+03    0.10000E+04   -0.30000E+04
     0.44721E+03    0.89443E+03   -0.30000E+04
     0.70711E+03    0.70711E+03   -0.30000E+04
    -0.70711E+03   -0.70711E+03   -0.25000E+04
    -0.44721E+03   -0.89443E+03   -0.25000E+04
     0.00000E+03   -0.10000E+04   -0.25000E+04
     0.44721E+03   -0.89443E+03   -0.25000E+04
     0.70711E+03   -0.70711E+03   -0.25000E+04
    -0.89443E+03   -0.44721E+03   -0.25000E+04
    -0.35355E+03   -0.35355E+03   -0.25000E+04
     0.00000E+03   -0.50000E+03   -0.25000E+04
     0.35355E+03   -0.35355E+03   -0.25000E+04
     0.89443E+03   -0.44721E+03   -0.25000E+04
    -0.10000E+04    0.00000E+03   -0.25000E+04
    -0.50000E+03    0.00000E+03   -0.25000E+04
     0.00000E+03    0.00000E+03   -0.25000E+04
     0.50000E+03    0.00000E+03   -0.25000E+04
     0.10000E+04    0.00000E+03   -0.25000E+04
    -0.89443E+03    0.44721E+03   -0.25000E+04
    -0.35355E+03    0.35355E+03   -0.25000E+04
     0.00000E+03    0.50000E+03   -0.25000E+04
     0.35355E+03    0.35355E+03   -0.25000E+04
     0.89443E+03    0.44721E+03   -0.25000E+04
    -0.70711E+03    0.70711E+03   -0.25000E+04
    -0.44721E+03    0.89443E+03   -0.25000E+04
     0.00000E+03    0.10000E+04   -0.25000E+04
     0.44721E+03    0.89443E+03   -0.25000E+04
     0.70711E+03    0.70711E+03   -0.25000E+04
    -0.70711E+03   -0.70711E+03   -0.20000E+04
    -0.44721E+03   -0.89443E+03   -0.20000E+04
     0.00000E+03   -0.10000E+04   -0.20000E+04
     0.44721E+03   -0.89443E+03   -0.20000E+04
     0.70711E+03   -0.70711E+03   -0.20000E+04
    -0.89443E+03   -0.44721E+03   -0.20000E+04
    -0.35355E+03   -0.35355E+03   -0.20000E+04
     0.00000E+03   -0.50000E+03   -0.20000E+04
     0.35355E+03   -0.35355E+03   -0.20000E+04
     0.89443E+03   -0.44721E+03   -0.20000E+04
    -0.10000E+04    0.00000E+03   -0.20000E+04
    -0.50000E+03    0.00000E+03   -0.20000E+04
     0.00000E+03    0.00000E+03   -0.20000E+04
     0.50000E+03    0.00000E+03   -0.20000E+04
     0.10000E+04    0.00000E+03   -0.20000E+04
    -0.89443E+03    0.44721E+03   -0.20000E+04
    -0.35355E+03    0.35355E+03   -0.20000E+04
     0.00000E+03    0.50000E+03   -0.20000E+04
     0.35355E+03    0.35355E+03   -0.20000E+04
     0.89443E+03    0.44721E+03   -0.20000E+04
    -0.70711E+03    0.70711E+03   -0.20000E+04
    -0.44721E+03    0.89443E+03   -0.20000E+04
     0.00000E+03    0.10000E+04   -0.20000E+04
     0.44721E+03    0.89443E+03   -0.20000E+04
     0.70711E+03    0.70711E+03   -0.20000E+04
    -0.70711E+03   -0.70711E+03   -0.15000E+04
    -0.44721E+03   -0.89443E+03   -0.15000E+04
     0.00000E+03   -0.10000E+04   -0.15000E+04
     0.44721E+03   -0.89443E+03   -0.15000E+04
     0.70711E+03   -0.70711E+03   -0.15000E+04
    -0.89443E+03   -0.44721E+03   -0.15000E+04
    -0.35355E+03   -0.35355E+03   -0.15000E+04
     0.00000E+03   -0.50000E+03   -0.15000E+04
     0.35355E+03   -0.35355E+03   -0.15000E+04
     0.89443E+03   -0.44721E+03   -0.15000E+04
    -0.10000E+04    0.00000E+03   -0.15000E+04
    -0.50000E+03    0.00000E+03   -0.15000E+04
     0.00000E+03    0.00000E+03   -0.15000E+04
     0.50000E+03    0.00000E+03   -0.15000E+04
     0.10000E+04    0.00000E+03   -0.15000E+04
    -0.89443E+03    0.44721E+03   -0.15000E+04
    -0.35355E+03    0.35355E+03   -0.15000E+04
     0.00000E+03    0.50000E+03   -0.15000E+04
     0.35355E+03    0.35355E+03   -0.15000E+04
     0.89443E+03    0.44721E+03   -0.15000E+04
    -0.70711E+03    0.70711E+03   -0.15000E+04
    -0.44721E+03    0.89443E+03   -0.15000E+04
     0.00000E+03    0.10000E+04   -0.15000E+04
     0.44721E+03    0.89443E+03   -0.15000E+04
     0.70711E+03    0.70711E+03   -0.15000E+04
    -0.70711E+03   -0.70711E+03   -0.10000E+04
    -0.44721E+03   -0.89443E+03   -0.10000E+04
     0.00000E+03   -0.10000E+04   -0.10000E+04
     0.44721E+03   -0.89443E+03   -0.10000E+04
     0.70711E+03   -0.70711E+03   -0.10000E+04
    -0.89443E+03   -0.44721E+03   -0.10000E+04
    -0.35355E+03   -0.35355E+03   -0.10000E+04
     0.00000E+03   -0.50000E+03   -0.10000E+04
     0.35355E+03   -0.35355E+03   -0.10000E+04
     0.89443E+03   -0.44721E+03   -0.10000E+04
    -0.10000E+04    0.00000E+03   -0.10000E+04
    -0.50000E+03    0.00000E+03   -0.10000E+04
     0.00000E+03    0.00000E+03   -0.10000E+04
     0.50000E+03    0.00000E+03   -0.10000E+04
     0.10000E+04    0.00000E+03   -0.10000E+04
    -0.89443E+03    0.44721E+03   -0.10000E+04
    -0.35355E+03    0.35355E+03   -0.10000E+04
     0.00000E+03    0.50000E+03   -0.10000E+04
     0.35355E+03    0.35355E+03   -0.10000E+04
     0.89443E+03    0.44721E+03   -0.10000E+04
    -0.70711E+03    0.70711E+03   -0.10000E+04
    -0.44721E+03    0.89443E+03   -0.10000E+04
     0.00000E+03    0.10000E+04   -0.10000E+04
     0.44721E+03    0.89443E+03   -0.10000E+04
     0.70711E+03    0.70711E+03   -0.10000E+04
    -0.70711E+03   -0.70711E+03   -0.50000E+03
    -0.44721E+03   -0.89443E+03   -0.50000E+03
     0.00000E+03   -0.10000E+04   -0.50000E+03
     0.44721E+03   -0.89443E+03   -0.50000E+03
     0.70711E+03   -0.70711E+03   -0.50000E+03
    -0.89443E+03   -0.44721E+03   -0.50000E+03
    -0.35355E+03   -0.35355E+03   -0.50000E+03
     0.00000E+03   -0.50000E+03   -0.50000E+03
     0.35355E+03   -0.35355E+03   -0.50000E+03
     0.89443E+03   -0.44721E+03   -0.50000E+03
    -0.10000E+04    0.00000E+03   -0.50000E+03
    -0.50000E+03    0.00000E+03   -0.50000E+03
     0.00000E+03    0.00000E+03   -0.50000E+03
     0.50000E+03    0.00000E+03   -0.50000E+03
     0.10000E+04    0.00000E+03   -0.50000E+03
    -0.89443E+03    0.44721E+03   -0.50000E+03
    -0.35355E+03    0.35355E+03   -0.50000E+03
     0.00000E+03    0.50000E+03   -0.50000E+03
     0.35355E+03    0.35355E+03   -0.50000E+03
     0.89443E+03    0.44721E+03   -0.50000E+03
    -0.70711E+03    0.70711E+03   -0.50000E+03
    -0.44721E+03    0.89443E+03   -0.50000E+03
     0.00000E+03    0.10000E+04   -0.50000E+03
     0.44721E+03    0.89443E+03   -0.50000E+03
     0.70711E+03    0.70711E+03   -0.50000E+03
    -0.70711E+03   -0.70711E+03    0.00000E+03
    -0.44721E+03   -0.89443E+03    0.00000E+03
     0.00000E+03   -0.10000E+04    0.00000E+03
     0.44721E+03   -0.89443E+03    0.00000E+03
     0.70711E+03   -0.70711E+03    0.00000E+03
    -0.89443E+03   -0.44721E+03    0.00000E+03
    -0.35355E+03   -0.35355E+03    0.00000E+03
     0.00000E+03   -0.50000E+03    0.00000E+03
     0.35355E+03   -0.35355E+03    0.00000E+03
     0.89443E+03   -0.44721E+03    0.00000E+03
    -0.10000E+04    0.00000E+03    0.00000E+03
    -0.50000E+03    0.00000E+03    0.00000E+03
     0.00000E+03    0.00000E+03    0.00000E+03
     0.50000E+03    0.00000E+03    0.00000E+03
     0.10000E+04    0.00000E+03    0.00000E+03
    -0.89443E+03    0.44721E+03    0.00000E+03
    -0.35355E+03    0.35355E+03    0.00000E+03
     0.00000E+03    0.50000E+03    0.00000E+03
     0.35355E+03    0.35355E+03    0.00000E+03
     0.89443E+03    0.44721E+03    0.00000E+03
    -0.70711E+03    0.70711E+03    0.00000E+03
    -0.44721E+03    0.89443E+03    0.00000E+03
     0.00000E+03    0.10000E+04    0.00000E+03
     0.44721E+03    0.89443E+03    0.00000E+03
     0.70711E+03    0.70711E+03    0.00000E+03
    -0.70711E+03   -0.70711E+03    0.50000E+03
    -0.44721E+03   -0.89443E+03    0.50000E+03
     0.00000E+03   -0.10000E+04    0.50000E+03
     0.44721E+03   -0.89443E+03    0.50000E+03
     0.70711E+03   -0.70711E+03    0.50000E+03
    -0.89443E+03   -0.44721E+03    0.50000E+03
    -0.35355E+03   -0.35355E+03    0.50000E+03
     0.00000E+03   -0.50000E+03    0.50000E+03
     0.35355E+03   -0.35355E+03    0.50000E+03
     0.89443E+03   -0.44721E+03    0.50000E+03
    -0.10000E+04    0.00000E+03    0.50000E+03
    -0.50000E+03    0.00000E+03    0.50000E+03
     0.00000E+03    0.00000E+03    0.50000E+03
     0.50000E+03    0.00000E+03    0.50000E+03
     0.10000E+04    0.00000E+03    0.50000E+03
    -0.89443E+03    0.44721E+03    0.50000E+03
    -0.35355E+03    0.35355E+03    0.50000E+03
     0.00000E+03    0.50000E+03    0.50000E+03
     0.35355E+03    0.35355E+03    0.50000E+03
     0.89443E+03    0.44721E+03    0.50000E+03
    -0.70711E+03    0.70711E+03    0.50000E+03
    -0.44721E+03    0.89443E+03    0.50000E+03
     0.00000E+03    0.10000E+04    0.50000E+03
     0.44721E+03    0.89443E+03    0.50000E+03
     0.70711E+03    0.70711E+03    0.50000E+03
    -0.70711E+03   -0.70711E+03    0.10000E+04
    -0.44721E+03   -0.89443E+03    0.10000E+04
     0.00000E+03   -0.10000E+04    0.10000E+04
     0.44721E+03   -0.89443E+03    0.10000E+04
     0.70711E+03   -0.70711E+03    0.10000E+04
    -0.89443E+03   -0.44721E+03    0.10000E+04
    -0.35355E+03   -0.35355E+03    0.10000E+04
     0.00000E+03   -0.50000E+03    0.10000E+04
     0.35355E+03   -0.35355E+03    0.10000E+04
     0.89443E+03   -0.44721E+03    0.10000E+04
    -0.10000E+04    0.00000E+03    0.10000E+04
    -0.50000E+03    0.00000E+03    0.10000E+04
     0.00000E+03    0.00000E+03    0.10000E+04
     0.50000E+03    0.00000E+03    0.10000E+04
     0.10000E+04    0.00000E+03    0.10000E+04
    -0.89443E+03    0.44721E+03    0.10000E+04
    -0.35355E+03    0.35355E+03    0.10000E+04
     0.00000E+03    0.50000E+03    0.10000E+04
     0.35355E+03    0.35355E+03    0.10000E+04
     0.89443E+03    0.44721E+03    0.10000E+04
    -0.70711E+03    0.70711E+03    0.10000E+04
    -0.44721E+03    0.89443E+03    0.10000E+04
     0.00000E+03    0.10000E+04    0.10000E+04
     0.44721E+03    0.89443E+03    0.10000E+04
     0.70711E+03    0.70711E+03    0.10000E+04
    -0.70711E+03   -0.70711E+03    0.15000E+04
    -0.44721E+03   -0.89443E+03    0.15000E+04
     0.00000E+03   -0.10000E+04    0.15000E+04
     0.44721E+03   -0.89443E+03    0.15000E+04
     0.70711E+03   -0.70711E+03    0.15000E+04
    -0.89443E+03   -0.44721E+03    0.15000E+04
    -0.35355E+03   -0.35355E+03    0.15000E+04
     0.00000E+03   -0.50000E+03    0.15000E+04
     0.35355E+03   -0.35355E+03    0.15000E+04
     0.89443E+03   -0.44721E+03    0.15000E+04
    -0.10000E+04    0.00000E+03    0.15000E+04
    -0.50000E+03    0.00000E+03    0.15000E+04
     0.00000E+03    0.00000E+03    0.15000E+04
     0.50000E+03    0.00000E+03    0.15000E+04
     0.10000E+04    0.00000E+03    0.15000E+04
    -0.89443E+03    0.44721E+03    0.15000E+04
    -0.35355E+03    0.35355E+03    0.15000E+04
     0.00000E+03    0.50000E+03    0.15000E+04
     0.35355E+03    0.35355E+03    0.15000E+04
     0.89443E+03    0.44721E+03    0.15000E+04
    -0.70711E+03    0.70711E+03    0.15000E+04
    -0.44721E+03    0.89443E+03    0.15000E+04
     0.00000E+03    0.10000E+04    0.15000E+04
     0.44721E+03    0.89443E+03    0.15000E+04
     0.70711E+03    0.70711E+03    0.15000E+04
    -0.70711E+03   -0.70711E+03    0.20000E+04
    -0.44721E+03   -0.89443E+03    0.20000E+04
     0.00000E+03   -0.10000E+04    0.20000E+04
     0.44721E+03   -0.89443E+03    0.20000E+04
     0.70711E+03   -0.70711E+03    0.20000E+04
    -0.89443E+03   -0.44721E+03    0.20000E+04
    -0.35355E+03   -0.35355E+03    0.20000E+04
     0.00000E+03   -0.50000E+03    0.20000E+04
     0.35355E+03   -0.35355E+03    0.20000E+04
     0.89443E+03   -0.44721E+03    0.20000E+04
    -0.10000E+04    0.00000E+03    0.20000E+04
    -0.50000E+03    0.00000E+03    0.20000E+04
     0.00000E+03    0.00000E+03    0.20000E+04
     0.50000E+03    0.00000E+03    0.20000E+04
     0.10000E+04    0.00000E+03    0.20000E+04
    -0.89443E+03    0.44721E+03    0.20000E+04
    -0.35355E+03    0.35355E+03    0.20000E+04
     0.00000E+03    0.50000E+03    0.20000E+04
     0.35355E+03    0.35355E+03    0.20000E+04
     0.89443E+03    0.44721E+03    0.20000E+04
    -0.70711E+03    0.70711E+03    0.20000E+04
    -0.44721E+03    0.89443E+03    0.20000E+04
     0.00000E+03    0.10000E+04    0.20000E+04
     0.44721E+03    0.89443E+03    0.20000E+04
     0.70711E+03    0.70711E+03    0.20000E+04
    -0.70711E+03   -0.70711E+03    0.25000E+04
    -0.44721E+03   -0.89443E+03    0.25000E+04
     0.00000E+03   -0.10000E+04    0.25000E+04
     0.44721E+03   -0.89443E+03    0.25000E+04
     0.70711E+03   -0.70711E+03    0.25000E+04
    -0.89443E+03   -0.44721E+03    0.25000E+04
    -0.35355E+03   -0.35355E+03    0.25000E+04
     0.00000E+03   -0.50000E+03    0.25000E+04
     0.35355E+03   -0.35355E+03    0.25000E+04
     0.89443E+03   -0.44721E+03    0.25000E+04
    -0.10000E+04    0.00000E+03    0.25000E+04
    -0.50000E+03    0.00000E+03    0.25000E+04
     0.00000E+03    0.00000E+03    0.25000E+04
     0.50000E+03    0.00000E+03    0.25000E+04
     0.10000E+04    0.00000E+03    0.25000E+04
    -0.89443E+03    0.44721E+03    0.25000E+04
    -0.35355E+03    0.35355E+03    0.25000E+04
     0.00000E+03    0.50000E+03    0.25000E+04
     0.35355E+03    0.35355E+03    0.25000E+04
     0.89443E+03    0.44721E+03    0.25000E+04
    -0.70711E+03    0.70711E+03    0.25000E+04
    -0.44721E+03    0.89443E+03    0.25000E+04
     0.00000E+03    0.10000E+04    0.25000E+04
     0.44721E+03    0.89443E+03    0.25000E+04
     0.70711E+03    0.70711E+03    0.25000E+04
    -0.70711E+03   -0.70711E+03    0.30000E+04
    -0.44721E+03   -0.89443E+03    0.30000E+04
     0.00000E+03   -0.10000E+04    0.30000E+04
     0.44721E+03   -0.89443E+03    0.30000E+04
     0.70711E+03   -0.70711E+03    0.30000E+04
    -0.89443E+03   -0.44721E+03    0.30000E+04
    -0.35355E+03   -0.35355E+03    0.30000E+04
     0.00000E+03   -0.50000E+03    0.30000E+04
     0.35355E+03   -0.35355E+03    0.30000E+04
     0.89443E+03   -0.44721E+03    0.30000E+04
    -0.10000E+04    0.00000E+03    0.30000E+04
    -0.50000E+03    0.00000E+03    0.30000E+04
     0.00000E+03    0.00000E+03    0.30000E+04
     0.50000E+03    0.00000E+03    0.30000E+04
     0.10000E+04    0.00000E+03    0.30000E+04
    -0.89443E+03    0.44721E+03    0.30000E+04
    -0.35355E+03    0.35355E+03    0.30000E+04
     0.00000E+03    0.50000E+03    0.30000E+04
     0.35355E+03    0.35355E+03    0.30000E+04
     0.89443E+03    0.44721E+03    0.30000E+04
    -0.70711E+03    0.70711E+03    0.30000E+04
    -0.44721E+03    0.89443E+03    0.30000E+04
     0.00000E+03    0.10000E+04    0.30000E+04
     0.44721E+03    0.89443E+03    0.30000E+04
     0.70711E+03    0.70711E+03    0.30000E+04
          1        26        27         2         6        31        32         7
          2        27        28         3         7        32        33         8
          3        28        29         4         8        33        34         9
          4        29        30         5         9        34        35        10
          6        31        32         7        11        36        37        12
          7        32        33         8        12        37        38        13
          8        33        34         9        13        38        39        14
          9        34        35        10        14        39        40        15
         11        36        37        12        16        41        42        17
         12        37        38        13        17        42        43        18
         13        38        39        14        18        43        44        19
         14        39        40        15        19        44        45        20
         16        41        42        17        21        46        47        22
         17        42        43        18        22        47        48        23
         18        43        44        19        23        48        49        24
         19        44        45        20        24        49        50        25
         26        51        52        27        31        56        57        32
         27        52        53        28        32        57        58        33
         28        53        54        29        33        58        59        34
         29        54        55        30        34        59        60        35
         31        56        57        32        36        61        62        37
         32        57        58        33        37        62        63        38
         33        58        59        34        38        63        64        39
         34        59        60        35        39        64        65        40
         36        61        62        37        41        66        67        42
         37        62        63        38        42        67        68        43
         38        63        64        39        43        68        69        44
         39        64        65        40        44        69        70        45
         41        66        67        42        46        71        72        47
         42        67        68        43        47        72        73        48
         43        68        69        44        48        73        74        49
         44        69        70        45        49        74        75        50
         51        76        77        52        56        81        82        57
         52        77        78        53        57        82        83        58
         53        78        79        54        58        83        84        59
         54        79        80        55        59        84        85        60
         56        81        82        57        61        86        87        62
         57        82        83        58        62        87        88        63
         58        83        84        59        63        88        89        64
         59        84        85        60        64        89        90        65
         61        86        87        62        66        91        92        67
         62        87        88        63        67        92        93        68
         63        88        89        64        68        93        94        69
         64        89        90        65        69        94        95        70
         66        91        92        67        71        96        97        72
         67        92        93        68        72        97        98        73
         68        93        94        69        73        98        99        74
         69        94        95        70        74        99       100        75
         76       101       102        77        81       106       107        82
         77       102       103        78        82       107       108        83
         78       103       104        79        83       108       109        84
         79       104       105        80        84       109       110        85
         81       106       107        82        86       111       112        87
         82       107       108        83        87       112       113        88
         83       108       109        84        88       113       114        89
         84       109       110        85        89       114       115        90
         86       111       112        87        91       116       117        92
         87       112       113        88        92       117       118        93
         88       113       114        89        93       118       119        94
         89       114       115        90        94       119       120        95
         91       116       117        92        96       121       122        97
         92       117       118        93        97       122       123        98
         93       118       119        94        98       123       124        99
         94       119       120        95        99       124       125       100
        101       126       127       102       106       131       132       107
        102       127       128       103       107       132       133       108
        103       128       129       104       108       133       134       109
        104       129       130       105       109       134       135       110
        106       131       132       107       111       136       137       112
        107       132       133       108       112       137       138       113
        108       133       134       109       113       138       139       114
        109       134       135       110       114       139       140       115
        111       136       137       112       116       141       142       117
        112       137       138       113       117       142       143       118
        113       138       139       114       118       143       144       119
        114       139       140       115       119       144       145       120
        116       141       142       117       121       146       147       122
        117       142       143       118       122       147       148       123
        118       143       144       119       123       148       149       124
        119       144       145       120       124       149       150       125
        126       151       152       127       131       156       157       132
        127       152       153       128       132       157       158       133
        128       153       154       129       133       158       159       134
        129       154       155       130       134       159       160       135
        131       156       157       132       136       161       162       137
        132       157       158       133       137       162       163       138
        133       158       159       134       138       163       164       139
        134       159       160       135       139       164       165       140
        136       161       162       137       141       166       167       142
        137       162       163       138       142       167       168       143
        138       163       164       139       143       168       169       144
        139       164       165       140       144       169       170       145
        141       166       167       142       146       171       172       147
        142       167       168       143       147       172       173       148
        143       168       169       144       148       173       174       149
        144       169       170       145       149       174       175       150
        151       176       177       152       156       181       182       157
        152       177       178       153       157       182       183       158
        153       178       179       154       158       183       184       159
        154       179       180       155       159       184       185       160
        156       181       182       157       161       186       187       162
        157       182       183       158       162       187       188       163
        158       183       184       159       163       188       189       164
        159       184       185       160       164       189       190       165
        161       186       187       162       166       191       192       167
        162       187       188       163       167       192       193       168
        163       188       189       164       168       193       194       169
        164       189       190       165       169       194       195       170
        166       191       192       167       171       196       197       172
        167       192       193       168       172       197       198       173
        168       193       194       169       173       198       199       174
        169       194       195       170       174       199       200       175
        176       201       202       177       181       206       207       182
        177       202       203       178       182       207       208       183
        178       203       204       179       183       208       209       184
        179       204       205       180       184       209       210       185
        181       206       207       182       186       211       212       187
        182       207       208       183       187       212       213       188
        183       208       209       184       188       213       214       189
        184       209       210       185       189       214       215       190
        186       211       212       187       191       216       217       192
        187       212       213       188       192       217       218       193
        188       213       214       189       193       218       219       194
        189       214       215       190       194       219       220       195
        191       216       217       192       196       221       222       197
        192       217       218       193       197       222       223       198
        193       218       219       194       198       223       224       199
        194       219       220       195       199       224       225       200
        201       226       227       202       206       231       232       207
        202       227       228       203       207       232       233       208
        203       228       229       204       208       233       234       209
        204       229       230       205       209       234       235       210
        206       231       232       207       211       236       237       212
        207       232       233       208       212       237       238       213
        208       233       234       209       213       238       239       214
        209       234       235       210       214       239       240       215
        211       236       237       212       216       241       242       217
        212       237       238       213       217       242       243       218
        213       238       239       214       218       243       244       219
        214       239       240       215       219       244       245       220
        216       241       242       217       221       246       247       222
        217       242       243       218       222       247       248       223
        218       243       244       219       223       248       249       224
        219       244       245       220       224       249       250       225
        226       251       252       227       231       256       257       232
        227       252       253       228       232       257       258       233
        228       253       254       229       233       258       259       234
        229       254       255       230       234       259       260       235
        231       256       257       232       236       261       262       237
        232       257       258       233       237       262       263       238
        233       258       259       234       238       263       264       239
        234       259       260       235       239       264       265       240
        236       261       262       237       241       266       267       242
        237       262       263       238       242       267       268       243
        238       263       264       239       243       268       269       244
        239       264       265       240       244       269       270       245
        241       266       267       242       246       271       272       247
        242       267       268       243       247       272       273       248
        243       268       269       244       248       273       274       249
        244       269       270       245       249       274       275       250
        251       276       277       252       256       281       282       257
        252       277       278       253       257       282       283       258
        253       278       279       254       258       283       284       259
        254       279       280       255       259       284       285       260
        256       281       282       257       261       286       287       262
        257       282       283       258       262       287       288       263
        258       283       284       259       263       288       289       264
        259       284       285       260       264       289       290       265
        261       286       287       262       266       291       292       267
        262       287       288       263       267       292       293       268
        263       288       289       264       268       293       294       269
        264       289       290       265       269       294       295       270
        266       291       292       267       271       296       297       272
        267       292       293       268       272       297       298       273
        268       293       294       269       273       298       299       274
        269       294       295       270       274       299       300       275
        276       301       302       277       281       306       307       282